#LAMMPS NVE

1372 atoms

1 atom types

0.0   45.1   xlo xhi
0.0   45.1   ylo yhi
0.0   45.1   zlo zhi

Masses

1  1.0

Atoms

           1           1   0.5000000000000000        0.5000000000000000        0.5000000000000000     
           2           1   4.0548013303822668        0.5000000000000000        0.5000000000000000     
           3           1   7.6096026607645344        0.5000000000000000        0.5000000000000000     
           4           1   11.1644039911468020        0.5000000000000000        0.5000000000000000     
           5           1   14.7192053215290690        0.5000000000000000        0.5000000000000000     
           6           1   18.2740066519113360        0.5000000000000000        0.5000000000000000     
           7           1   21.8288079822936040        0.5000000000000000        0.5000000000000000     
           8           1   25.3836093126758690        0.5000000000000000        0.5000000000000000     
           9           1   28.9384106430581380        0.5000000000000000        0.5000000000000000     
          10           1   32.4932119734404030        0.5000000000000000        0.5000000000000000     
          11           1   36.0480133038226710        0.5000000000000000        0.5000000000000000     
          12           1   0.5000000000000000        4.0548013303822668        0.5000000000000000     
          13           1   4.0548013303822668        4.0548013303822668        0.5000000000000000     
          14           1   7.6096026607645344        4.0548013303822668        0.5000000000000000     
          15           1   11.1644039911468020        4.0548013303822668        0.5000000000000000     
          16           1   14.7192053215290690        4.0548013303822668        0.5000000000000000     
          17           1   18.2740066519113360        4.0548013303822668        0.5000000000000000     
          18           1   21.8288079822936040        4.0548013303822668        0.5000000000000000     
          19           1   25.3836093126758690        4.0548013303822668        0.5000000000000000     
          20           1   28.9384106430581380        4.0548013303822668        0.5000000000000000     
          21           1   32.4932119734404030        4.0548013303822668        0.5000000000000000     
          22           1   36.0480133038226710        4.0548013303822668        0.5000000000000000     
          23           1   0.5000000000000000        7.6096026607645344        0.5000000000000000     
          24           1   4.0548013303822668        7.6096026607645344        0.5000000000000000     
          25           1   7.6096026607645344        7.6096026607645344        0.5000000000000000     
          26           1   11.1644039911468020        7.6096026607645344        0.5000000000000000     
          27           1   14.7192053215290690        7.6096026607645344        0.5000000000000000     
          28           1   18.2740066519113360        7.6096026607645344        0.5000000000000000     
          29           1   21.8288079822936040        7.6096026607645344        0.5000000000000000     
          30           1   25.3836093126758690        7.6096026607645344        0.5000000000000000     
          31           1   28.9384106430581380        7.6096026607645344        0.5000000000000000     
          32           1   32.4932119734404030        7.6096026607645344        0.5000000000000000     
          33           1   36.0480133038226710        7.6096026607645344        0.5000000000000000     
          34           1   0.5000000000000000        11.1644039911468020        0.5000000000000000     
          35           1   4.0548013303822668        11.1644039911468020        0.5000000000000000     
          36           1   7.6096026607645344        11.1644039911468020        0.5000000000000000     
          37           1   11.1644039911468020        11.1644039911468020        0.5000000000000000     
          38           1   14.7192053215290690        11.1644039911468020        0.5000000000000000     
          39           1   18.2740066519113360        11.1644039911468020        0.5000000000000000     
          40           1   21.8288079822936040        11.1644039911468020        0.5000000000000000     
          41           1   25.3836093126758690        11.1644039911468020        0.5000000000000000     
          42           1   28.9384106430581380        11.1644039911468020        0.5000000000000000     
          43           1   32.4932119734404030        11.1644039911468020        0.5000000000000000     
          44           1   36.0480133038226710        11.1644039911468020        0.5000000000000000     
          45           1   0.5000000000000000        14.7192053215290690        0.5000000000000000     
          46           1   4.0548013303822668        14.7192053215290690        0.5000000000000000     
          47           1   7.6096026607645344        14.7192053215290690        0.5000000000000000     
          48           1   11.1644039911468020        14.7192053215290690        0.5000000000000000     
          49           1   14.7192053215290690        14.7192053215290690        0.5000000000000000     
          50           1   18.2740066519113360        14.7192053215290690        0.5000000000000000     
          51           1   21.8288079822936040        14.7192053215290690        0.5000000000000000     
          52           1   25.3836093126758690        14.7192053215290690        0.5000000000000000     
          53           1   28.9384106430581380        14.7192053215290690        0.5000000000000000     
          54           1   32.4932119734404030        14.7192053215290690        0.5000000000000000     
          55           1   36.0480133038226710        14.7192053215290690        0.5000000000000000     
          56           1   0.5000000000000000        18.2740066519113360        0.5000000000000000     
          57           1   4.0548013303822668        18.2740066519113360        0.5000000000000000     
          58           1   7.6096026607645344        18.2740066519113360        0.5000000000000000     
          59           1   11.1644039911468020        18.2740066519113360        0.5000000000000000     
          60           1   14.7192053215290690        18.2740066519113360        0.5000000000000000     
          61           1   18.2740066519113360        18.2740066519113360        0.5000000000000000     
          62           1   21.8288079822936040        18.2740066519113360        0.5000000000000000     
          63           1   25.3836093126758690        18.2740066519113360        0.5000000000000000     
          64           1   28.9384106430581380        18.2740066519113360        0.5000000000000000     
          65           1   32.4932119734404030        18.2740066519113360        0.5000000000000000     
          66           1   36.0480133038226710        18.2740066519113360        0.5000000000000000     
          67           1   0.5000000000000000        21.8288079822936040        0.5000000000000000     
          68           1   4.0548013303822668        21.8288079822936040        0.5000000000000000     
          69           1   7.6096026607645344        21.8288079822936040        0.5000000000000000     
          70           1   11.1644039911468020        21.8288079822936040        0.5000000000000000     
          71           1   14.7192053215290690        21.8288079822936040        0.5000000000000000     
          72           1   18.2740066519113360        21.8288079822936040        0.5000000000000000     
          73           1   21.8288079822936040        21.8288079822936040        0.5000000000000000     
          74           1   25.3836093126758690        21.8288079822936040        0.5000000000000000     
          75           1   28.9384106430581380        21.8288079822936040        0.5000000000000000     
          76           1   32.4932119734404030        21.8288079822936040        0.5000000000000000     
          77           1   36.0480133038226710        21.8288079822936040        0.5000000000000000     
          78           1   0.5000000000000000        25.3836093126758690        0.5000000000000000     
          79           1   4.0548013303822668        25.3836093126758690        0.5000000000000000     
          80           1   7.6096026607645344        25.3836093126758690        0.5000000000000000     
          81           1   11.1644039911468020        25.3836093126758690        0.5000000000000000     
          82           1   14.7192053215290690        25.3836093126758690        0.5000000000000000     
          83           1   18.2740066519113360        25.3836093126758690        0.5000000000000000     
          84           1   21.8288079822936040        25.3836093126758690        0.5000000000000000     
          85           1   25.3836093126758690        25.3836093126758690        0.5000000000000000     
          86           1   28.9384106430581380        25.3836093126758690        0.5000000000000000     
          87           1   32.4932119734404030        25.3836093126758690        0.5000000000000000     
          88           1   36.0480133038226710        25.3836093126758690        0.5000000000000000     
          89           1   0.5000000000000000        28.9384106430581380        0.5000000000000000     
          90           1   4.0548013303822668        28.9384106430581380        0.5000000000000000     
          91           1   7.6096026607645344        28.9384106430581380        0.5000000000000000     
          92           1   11.1644039911468020        28.9384106430581380        0.5000000000000000     
          93           1   14.7192053215290690        28.9384106430581380        0.5000000000000000     
          94           1   18.2740066519113360        28.9384106430581380        0.5000000000000000     
          95           1   21.8288079822936040        28.9384106430581380        0.5000000000000000     
          96           1   25.3836093126758690        28.9384106430581380        0.5000000000000000     
          97           1   28.9384106430581380        28.9384106430581380        0.5000000000000000     
          98           1   32.4932119734404030        28.9384106430581380        0.5000000000000000     
          99           1   36.0480133038226710        28.9384106430581380        0.5000000000000000     
         100           1   0.5000000000000000        32.4932119734404030        0.5000000000000000     
         101           1   4.0548013303822668        32.4932119734404030        0.5000000000000000     
         102           1   7.6096026607645344        32.4932119734404030        0.5000000000000000     
         103           1   11.1644039911468020        32.4932119734404030        0.5000000000000000     
         104           1   14.7192053215290690        32.4932119734404030        0.5000000000000000     
         105           1   18.2740066519113360        32.4932119734404030        0.5000000000000000     
         106           1   21.8288079822936040        32.4932119734404030        0.5000000000000000     
         107           1   25.3836093126758690        32.4932119734404030        0.5000000000000000     
         108           1   28.9384106430581380        32.4932119734404030        0.5000000000000000     
         109           1   32.4932119734404030        32.4932119734404030        0.5000000000000000     
         110           1   36.0480133038226710        32.4932119734404030        0.5000000000000000     
         111           1   0.5000000000000000        36.0480133038226710        0.5000000000000000     
         112           1   4.0548013303822668        36.0480133038226710        0.5000000000000000     
         113           1   7.6096026607645344        36.0480133038226710        0.5000000000000000     
         114           1   11.1644039911468020        36.0480133038226710        0.5000000000000000     
         115           1   14.7192053215290690        36.0480133038226710        0.5000000000000000     
         116           1   18.2740066519113360        36.0480133038226710        0.5000000000000000     
         117           1   21.8288079822936040        36.0480133038226710        0.5000000000000000     
         118           1   25.3836093126758690        36.0480133038226710        0.5000000000000000     
         119           1   28.9384106430581380        36.0480133038226710        0.5000000000000000     
         120           1   32.4932119734404030        36.0480133038226710        0.5000000000000000     
         121           1   36.0480133038226710        36.0480133038226710        0.5000000000000000     
         122           1   0.5000000000000000        0.5000000000000000        4.0548013303822668     
         123           1   4.0548013303822668        0.5000000000000000        4.0548013303822668     
         124           1   7.6096026607645344        0.5000000000000000        4.0548013303822668     
         125           1   11.1644039911468020        0.5000000000000000        4.0548013303822668     
         126           1   14.7192053215290690        0.5000000000000000        4.0548013303822668     
         127           1   18.2740066519113360        0.5000000000000000        4.0548013303822668     
         128           1   21.8288079822936040        0.5000000000000000        4.0548013303822668     
         129           1   25.3836093126758690        0.5000000000000000        4.0548013303822668     
         130           1   28.9384106430581380        0.5000000000000000        4.0548013303822668     
         131           1   32.4932119734404030        0.5000000000000000        4.0548013303822668     
         132           1   36.0480133038226710        0.5000000000000000        4.0548013303822668     
         133           1   0.5000000000000000        4.0548013303822668        4.0548013303822668     
         134           1   4.0548013303822668        4.0548013303822668        4.0548013303822668     
         135           1   7.6096026607645344        4.0548013303822668        4.0548013303822668     
         136           1   11.1644039911468020        4.0548013303822668        4.0548013303822668     
         137           1   14.7192053215290690        4.0548013303822668        4.0548013303822668     
         138           1   18.2740066519113360        4.0548013303822668        4.0548013303822668     
         139           1   21.8288079822936040        4.0548013303822668        4.0548013303822668     
         140           1   25.3836093126758690        4.0548013303822668        4.0548013303822668     
         141           1   28.9384106430581380        4.0548013303822668        4.0548013303822668     
         142           1   32.4932119734404030        4.0548013303822668        4.0548013303822668     
         143           1   36.0480133038226710        4.0548013303822668        4.0548013303822668     
         144           1   0.5000000000000000        7.6096026607645344        4.0548013303822668     
         145           1   4.0548013303822668        7.6096026607645344        4.0548013303822668     
         146           1   7.6096026607645344        7.6096026607645344        4.0548013303822668     
         147           1   11.1644039911468020        7.6096026607645344        4.0548013303822668     
         148           1   14.7192053215290690        7.6096026607645344        4.0548013303822668     
         149           1   18.2740066519113360        7.6096026607645344        4.0548013303822668     
         150           1   21.8288079822936040        7.6096026607645344        4.0548013303822668     
         151           1   25.3836093126758690        7.6096026607645344        4.0548013303822668     
         152           1   28.9384106430581380        7.6096026607645344        4.0548013303822668     
         153           1   32.4932119734404030        7.6096026607645344        4.0548013303822668     
         154           1   36.0480133038226710        7.6096026607645344        4.0548013303822668     
         155           1   0.5000000000000000        11.1644039911468020        4.0548013303822668     
         156           1   4.0548013303822668        11.1644039911468020        4.0548013303822668     
         157           1   7.6096026607645344        11.1644039911468020        4.0548013303822668     
         158           1   11.1644039911468020        11.1644039911468020        4.0548013303822668     
         159           1   14.7192053215290690        11.1644039911468020        4.0548013303822668     
         160           1   18.2740066519113360        11.1644039911468020        4.0548013303822668     
         161           1   21.8288079822936040        11.1644039911468020        4.0548013303822668     
         162           1   25.3836093126758690        11.1644039911468020        4.0548013303822668     
         163           1   28.9384106430581380        11.1644039911468020        4.0548013303822668     
         164           1   32.4932119734404030        11.1644039911468020        4.0548013303822668     
         165           1   36.0480133038226710        11.1644039911468020        4.0548013303822668     
         166           1   0.5000000000000000        14.7192053215290690        4.0548013303822668     
         167           1   4.0548013303822668        14.7192053215290690        4.0548013303822668     
         168           1   7.6096026607645344        14.7192053215290690        4.0548013303822668     
         169           1   11.1644039911468020        14.7192053215290690        4.0548013303822668     
         170           1   14.7192053215290690        14.7192053215290690        4.0548013303822668     
         171           1   18.2740066519113360        14.7192053215290690        4.0548013303822668     
         172           1   21.8288079822936040        14.7192053215290690        4.0548013303822668     
         173           1   25.3836093126758690        14.7192053215290690        4.0548013303822668     
         174           1   28.9384106430581380        14.7192053215290690        4.0548013303822668     
         175           1   32.4932119734404030        14.7192053215290690        4.0548013303822668     
         176           1   36.0480133038226710        14.7192053215290690        4.0548013303822668     
         177           1   0.5000000000000000        18.2740066519113360        4.0548013303822668     
         178           1   4.0548013303822668        18.2740066519113360        4.0548013303822668     
         179           1   7.6096026607645344        18.2740066519113360        4.0548013303822668     
         180           1   11.1644039911468020        18.2740066519113360        4.0548013303822668     
         181           1   14.7192053215290690        18.2740066519113360        4.0548013303822668     
         182           1   18.2740066519113360        18.2740066519113360        4.0548013303822668     
         183           1   21.8288079822936040        18.2740066519113360        4.0548013303822668     
         184           1   25.3836093126758690        18.2740066519113360        4.0548013303822668     
         185           1   28.9384106430581380        18.2740066519113360        4.0548013303822668     
         186           1   32.4932119734404030        18.2740066519113360        4.0548013303822668     
         187           1   36.0480133038226710        18.2740066519113360        4.0548013303822668     
         188           1   0.5000000000000000        21.8288079822936040        4.0548013303822668     
         189           1   4.0548013303822668        21.8288079822936040        4.0548013303822668     
         190           1   7.6096026607645344        21.8288079822936040        4.0548013303822668     
         191           1   11.1644039911468020        21.8288079822936040        4.0548013303822668     
         192           1   14.7192053215290690        21.8288079822936040        4.0548013303822668     
         193           1   18.2740066519113360        21.8288079822936040        4.0548013303822668     
         194           1   21.8288079822936040        21.8288079822936040        4.0548013303822668     
         195           1   25.3836093126758690        21.8288079822936040        4.0548013303822668     
         196           1   28.9384106430581380        21.8288079822936040        4.0548013303822668     
         197           1   32.4932119734404030        21.8288079822936040        4.0548013303822668     
         198           1   36.0480133038226710        21.8288079822936040        4.0548013303822668     
         199           1   0.5000000000000000        25.3836093126758690        4.0548013303822668     
         200           1   4.0548013303822668        25.3836093126758690        4.0548013303822668     
         201           1   7.6096026607645344        25.3836093126758690        4.0548013303822668     
         202           1   11.1644039911468020        25.3836093126758690        4.0548013303822668     
         203           1   14.7192053215290690        25.3836093126758690        4.0548013303822668     
         204           1   18.2740066519113360        25.3836093126758690        4.0548013303822668     
         205           1   21.8288079822936040        25.3836093126758690        4.0548013303822668     
         206           1   25.3836093126758690        25.3836093126758690        4.0548013303822668     
         207           1   28.9384106430581380        25.3836093126758690        4.0548013303822668     
         208           1   32.4932119734404030        25.3836093126758690        4.0548013303822668     
         209           1   36.0480133038226710        25.3836093126758690        4.0548013303822668     
         210           1   0.5000000000000000        28.9384106430581380        4.0548013303822668     
         211           1   4.0548013303822668        28.9384106430581380        4.0548013303822668     
         212           1   7.6096026607645344        28.9384106430581380        4.0548013303822668     
         213           1   11.1644039911468020        28.9384106430581380        4.0548013303822668     
         214           1   14.7192053215290690        28.9384106430581380        4.0548013303822668     
         215           1   18.2740066519113360        28.9384106430581380        4.0548013303822668     
         216           1   21.8288079822936040        28.9384106430581380        4.0548013303822668     
         217           1   25.3836093126758690        28.9384106430581380        4.0548013303822668     
         218           1   28.9384106430581380        28.9384106430581380        4.0548013303822668     
         219           1   32.4932119734404030        28.9384106430581380        4.0548013303822668     
         220           1   36.0480133038226710        28.9384106430581380        4.0548013303822668     
         221           1   0.5000000000000000        32.4932119734404030        4.0548013303822668     
         222           1   4.0548013303822668        32.4932119734404030        4.0548013303822668     
         223           1   7.6096026607645344        32.4932119734404030        4.0548013303822668     
         224           1   11.1644039911468020        32.4932119734404030        4.0548013303822668     
         225           1   14.7192053215290690        32.4932119734404030        4.0548013303822668     
         226           1   18.2740066519113360        32.4932119734404030        4.0548013303822668     
         227           1   21.8288079822936040        32.4932119734404030        4.0548013303822668     
         228           1   25.3836093126758690        32.4932119734404030        4.0548013303822668     
         229           1   28.9384106430581380        32.4932119734404030        4.0548013303822668     
         230           1   32.4932119734404030        32.4932119734404030        4.0548013303822668     
         231           1   36.0480133038226710        32.4932119734404030        4.0548013303822668     
         232           1   0.5000000000000000        36.0480133038226710        4.0548013303822668     
         233           1   4.0548013303822668        36.0480133038226710        4.0548013303822668     
         234           1   7.6096026607645344        36.0480133038226710        4.0548013303822668     
         235           1   11.1644039911468020        36.0480133038226710        4.0548013303822668     
         236           1   14.7192053215290690        36.0480133038226710        4.0548013303822668     
         237           1   18.2740066519113360        36.0480133038226710        4.0548013303822668     
         238           1   21.8288079822936040        36.0480133038226710        4.0548013303822668     
         239           1   25.3836093126758690        36.0480133038226710        4.0548013303822668     
         240           1   28.9384106430581380        36.0480133038226710        4.0548013303822668     
         241           1   32.4932119734404030        36.0480133038226710        4.0548013303822668     
         242           1   36.0480133038226710        36.0480133038226710        4.0548013303822668     
         243           1   0.5000000000000000        0.5000000000000000        7.6096026607645344     
         244           1   4.0548013303822668        0.5000000000000000        7.6096026607645344     
         245           1   7.6096026607645344        0.5000000000000000        7.6096026607645344     
         246           1   11.1644039911468020        0.5000000000000000        7.6096026607645344     
         247           1   14.7192053215290690        0.5000000000000000        7.6096026607645344     
         248           1   18.2740066519113360        0.5000000000000000        7.6096026607645344     
         249           1   21.8288079822936040        0.5000000000000000        7.6096026607645344     
         250           1   25.3836093126758690        0.5000000000000000        7.6096026607645344     
         251           1   28.9384106430581380        0.5000000000000000        7.6096026607645344     
         252           1   32.4932119734404030        0.5000000000000000        7.6096026607645344     
         253           1   36.0480133038226710        0.5000000000000000        7.6096026607645344     
         254           1   0.5000000000000000        4.0548013303822668        7.6096026607645344     
         255           1   4.0548013303822668        4.0548013303822668        7.6096026607645344     
         256           1   7.6096026607645344        4.0548013303822668        7.6096026607645344     
         257           1   11.1644039911468020        4.0548013303822668        7.6096026607645344     
         258           1   14.7192053215290690        4.0548013303822668        7.6096026607645344     
         259           1   18.2740066519113360        4.0548013303822668        7.6096026607645344     
         260           1   21.8288079822936040        4.0548013303822668        7.6096026607645344     
         261           1   25.3836093126758690        4.0548013303822668        7.6096026607645344     
         262           1   28.9384106430581380        4.0548013303822668        7.6096026607645344     
         263           1   32.4932119734404030        4.0548013303822668        7.6096026607645344     
         264           1   36.0480133038226710        4.0548013303822668        7.6096026607645344     
         265           1   0.5000000000000000        7.6096026607645344        7.6096026607645344     
         266           1   4.0548013303822668        7.6096026607645344        7.6096026607645344     
         267           1   7.6096026607645344        7.6096026607645344        7.6096026607645344     
         268           1   11.1644039911468020        7.6096026607645344        7.6096026607645344     
         269           1   14.7192053215290690        7.6096026607645344        7.6096026607645344     
         270           1   18.2740066519113360        7.6096026607645344        7.6096026607645344     
         271           1   21.8288079822936040        7.6096026607645344        7.6096026607645344     
         272           1   25.3836093126758690        7.6096026607645344        7.6096026607645344     
         273           1   28.9384106430581380        7.6096026607645344        7.6096026607645344     
         274           1   32.4932119734404030        7.6096026607645344        7.6096026607645344     
         275           1   36.0480133038226710        7.6096026607645344        7.6096026607645344     
         276           1   0.5000000000000000        11.1644039911468020        7.6096026607645344     
         277           1   4.0548013303822668        11.1644039911468020        7.6096026607645344     
         278           1   7.6096026607645344        11.1644039911468020        7.6096026607645344     
         279           1   11.1644039911468020        11.1644039911468020        7.6096026607645344     
         280           1   14.7192053215290690        11.1644039911468020        7.6096026607645344     
         281           1   18.2740066519113360        11.1644039911468020        7.6096026607645344     
         282           1   21.8288079822936040        11.1644039911468020        7.6096026607645344     
         283           1   25.3836093126758690        11.1644039911468020        7.6096026607645344     
         284           1   28.9384106430581380        11.1644039911468020        7.6096026607645344     
         285           1   32.4932119734404030        11.1644039911468020        7.6096026607645344     
         286           1   36.0480133038226710        11.1644039911468020        7.6096026607645344     