ITEM: TIMESTEP
0
ITEM: NUMBER OF ATOMS
150
ITEM: BOX BOUNDS pp pp pp
0.0000000000000000e+00 4.0000000000000000e+01
0.0000000000000000e+00 4.0000000000000000e+01
0.0000000000000000e+00 4.0000000000000000e+01
ITEM: ATOMS id type xs ys zs
1 2 0.0025 0.0025 0.0025
2 1 0.0025 0.0275 0.0025
4 2 0.215707 0.0025 0.0025
5 1 0.215707 0.0275 0.0025
7 2 0.428914 0.0025 0.0025
8 1 0.428914 0.0275 0.0025
10 2 0.642122 0.0025 0.0025
11 1 0.642122 0.0275 0.0025
13 2 0.855329 0.0025 0.0025
14 1 0.855329 0.0275 0.0025
16 2 0.0025 0.215707 0.0025
17 1 0.0025 0.240707 0.0025
18 1 0.0025 0.204874 0.0235702
19 2 0.215707 0.215707 0.0025
20 1 0.215707 0.240707 0.0025
21 1 0.215707 0.204874 0.0235702
22 2 0.428914 0.215707 0.0025
23 1 0.428914 0.240707 0.0025
24 1 0.428914 0.204874 0.0235702
25 2 0.642122 0.215707 0.0025
26 1 0.642122 0.240707 0.0025
27 1 0.642122 0.204874 0.0235702
28 2 0.855329 0.215707 0.0025
29 1 0.855329 0.240707 0.0025
30 1 0.855329 0.204874 0.0235702
31 2 0.0025 0.428914 0.0025
32 1 0.0025 0.453914 0.0025
33 1 0.0025 0.418081 0.0235702
34 2 0.215707 0.428914 0.0025
35 1 0.215707 0.453914 0.0025
36 1 0.215707 0.418081 0.0235702
37 2 0.428914 0.428914 0.0025
38 1 0.428914 0.453914 0.0025
39 1 0.428914 0.418081 0.0235702
40 2 0.642122 0.428914 0.0025
41 1 0.642122 0.453914 0.0025
42 1 0.642122 0.418081 0.0235702
43 2 0.855329 0.428914 0.0025
44 1 0.855329 0.453914 0.0025
45 1 0.855329 0.418081 0.0235702
46 2 0.0025 0.642122 0.0025
48 1 0.0025 0.631288 0.0235702
49 2 0.215707 0.642122 0.0025
51 1 0.215707 0.631288 0.0235702
52 2 0.428914 0.642122 0.0025
54 1 0.428914 0.631288 0.0235702
55 2 0.642122 0.642122 0.0025
57 1 0.642122 0.631288 0.0235702
58 2 0.855329 0.642122 0.0025
60 1 0.855329 0.631288 0.0235702
47 1 0.0025 0.667122 0.0025
50 1 0.215707 0.667122 0.0025
53 1 0.428914 0.667122 0.0025
56 1 0.642122 0.667122 0.0025
59 1 0.855329 0.667122 0.0025
3 1 0.0025 0.991667 0.0235702
61 2 0.0025 0.855329 0.0025
62 1 0.0025 0.880329 0.0025
63 1 0.0025 0.844496 0.0235702
6 1 0.215707 0.991667 0.0235702
64 2 0.215707 0.855329 0.0025
65 1 0.215707 0.880329 0.0025
66 1 0.215707 0.844496 0.0235702
9 1 0.428914 0.991667 0.0235702
67 2 0.428914 0.855329 0.0025
68 1 0.428914 0.880329 0.0025
69 1 0.428914 0.844496 0.0235702
12 1 0.642122 0.991667 0.0235702
70 2 0.642122 0.855329 0.0025
71 1 0.642122 0.880329 0.0025
72 1 0.642122 0.844496 0.0235702
15 1 0.855329 0.991667 0.0235702
73 2 0.855329 0.855329 0.0025
74 1 0.855329 0.880329 0.0025
75 1 0.855329 0.844496 0.0235702
76 2 0.0025 0.0025 0.215707
77 1 0.0025 0.0275 0.215707
79 2 0.215707 0.0025 0.215707
80 1 0.215707 0.0275 0.215707
82 2 0.428914 0.0025 0.215707
83 1 0.428914 0.0275 0.215707
85 2 0.642122 0.0025 0.215707
86 1 0.642122 0.0275 0.215707
88 2 0.855329 0.0025 0.215707
89 1 0.855329 0.0275 0.215707
91 2 0.0025 0.215707 0.215707
92 1 0.0025 0.240707 0.215707
93 1 0.0025 0.204874 0.236777
94 2 0.215707 0.215707 0.215707
95 1 0.215707 0.240707 0.215707
96 1 0.215707 0.204874 0.236777
97 2 0.428914 0.215707 0.215707
98 1 0.428914 0.240707 0.215707
99 1 0.428914 0.204874 0.236777
100 2 0.642122 0.215707 0.215707
101 1 0.642122 0.240707 0.215707
102 1 0.642122 0.204874 0.236777
103 2 0.855329 0.215707 0.215707
104 1 0.855329 0.240707 0.215707
105 1 0.855329 0.204874 0.236777
106 2 0.0025 0.428914 0.215707
107 1 0.0025 0.453914 0.215707
108 1 0.0025 0.418081 0.236777
109 2 0.215707 0.428914 0.215707
110 1 0.215707 0.453914 0.215707
111 1 0.215707 0.418081 0.236777
112 2 0.428914 0.428914 0.215707
113 1 0.428914 0.453914 0.215707
114 1 0.428914 0.418081 0.236777
115 2 0.642122 0.428914 0.215707
116 1 0.642122 0.453914 0.215707
117 1 0.642122 0.418081 0.236777
118 2 0.855329 0.428914 0.215707
119 1 0.855329 0.453914 0.215707
120 1 0.855329 0.418081 0.236777
121 2 0.0025 0.642122 0.215707
123 1 0.0025 0.631288 0.236777
124 2 0.215707 0.642122 0.215707
126 1 0.215707 0.631288 0.236777
127 2 0.428914 0.642122 0.215707
129 1 0.428914 0.631288 0.236777
130 2 0.642122 0.642122 0.215707
132 1 0.642122 0.631288 0.236777
133 2 0.855329 0.642122 0.215707
135 1 0.855329 0.631288 0.236777
122 1 0.0025 0.667122 0.215707
125 1 0.215707 0.667122 0.215707
128 1 0.428914 0.667122 0.215707
131 1 0.642122 0.667122 0.215707
134 1 0.855329 0.667122 0.215707
78 1 0.0025 0.991667 0.236777
136 2 0.0025 0.855329 0.215707
137 1 0.0025 0.880329 0.215707
138 1 0.0025 0.844496 0.236777
81 1 0.215707 0.991667 0.236777
139 2 0.215707 0.855329 0.215707
140 1 0.215707 0.880329 0.215707
141 1 0.215707 0.844496 0.236777
84 1 0.428914 0.991667 0.236777
142 2 0.428914 0.855329 0.215707
143 1 0.428914 0.880329 0.215707
144 1 0.428914 0.844496 0.236777
87 1 0.642122 0.991667 0.236777
145 2 0.642122 0.855329 0.215707
146 1 0.642122 0.880329 0.215707
147 1 0.642122 0.844496 0.236777
90 1 0.855329 0.991667 0.236777
148 2 0.855329 0.855329 0.215707
149 1 0.855329 0.880329 0.215707
150 1 0.855329 0.844496 0.236777
ITEM: TIMESTEP
5000
ITEM: NUMBER OF ATOMS
150
ITEM: BOX BOUNDS pp pp pp
1.9645917244499174e+00 3.8035408275550097e+01
1.9645917244499174e+00 3.8035408275550097e+01
1.9645917244499174e+00 3.8035408275550097e+01
ITEM: ATOMS id type xs ys zs
86 1 0.472932 0.231016 0.98903
115 2 0.787725 0.0961028 0.00245237
82 2 0.0269218 0.346634 0.123344
83 1 0.0268382 0.368496 0.142764
84 1 0.0149569 0.330631 0.137767
22 2 0.237651 0.215344 0.157067
23 1 0.243681 0.240782 0.156622
24 1 0.212305 0.208633 0.170165
85 2 0.455874 0.233213 0.00909248
87 1 0.453342 0.208735 0.0211098
116 1 0.796868 0.110131 0.980945
117 1 0.785147 0.114172 0.0200037
46 2 0.819398 0.387157 0.0505484
48 1 0.831958 0.402434 0.0670874
47 1 0.802721 0.402602 0.0419334
90 1 0.784269 0.445672 0.960429
88 2 0.790029 0.471559 0.955261
73 2 0.406187 0.822122 0.0979805
74 1 0.413627 0.796889 0.105167
61 2 0.713111 0.733806 0.0512097
62 1 0.717545 0.757195 0.0405768
63 1 0.695772 0.739809 0.0725289
40 2 0.184387 0.102721 0.0267073
41 1 0.196628 0.100885 0.0478664
75 1 0.394006 0.829537 0.119593
132 1 0.772661 0.19036 0.158958
130 2 0.794863 0.188493 0.143522
131 1 0.815621 0.17567 0.152409
128 1 0.991047 0.0247794 0.321334
136 2 0.187672 0.331397 0.159532
138 1 0.186018 0.358478 0.150586
137 1 0.172526 0.325305 0.181551
43 2 0.801206 0.27476 0.211404
44 1 0.784401 0.297389 0.210332
45 1 0.808483 0.26453 0.190071
127 2 0.00568241 0.037231 0.340436
129 1 0.00579693 0.0646287 0.338841
109 2 0.120955 0.463018 0.198961
111 1 0.111856 0.469821 0.175004
110 1 0.10856 0.44036 0.211167
105 1 0.00952864 0.439393 0.281383
103 2 0.9918 0.444765 0.263622
104 1 0.97222 0.460195 0.269207
124 2 0.211378 0.654262 0.164004
126 1 0.228607 0.648 0.143309
125 1 0.190647 0.638304 0.164373
49 2 0.716261 0.651791 0.379688
50 1 0.723391 0.638303 0.356194
65 1 0.571423 0.692992 0.352358
51 1 0.700065 0.66955 0.371349
64 2 0.573349 0.682942 0.377677
66 1 0.595157 0.693053 0.386852
25 2 0.608924 0.836495 0.141728
27 1 0.592517 0.854406 0.133638
143 1 0.20467 0.886666 0.228937
144 1 0.178677 0.915362 0.241276
142 2 0.203733 0.909008 0.245851
26 1 0.629164 0.831277 0.125698
118 2 0.777669 0.981486 0.404635
119 1 0.764808 0.965711 0.419641
120 1 0.77036 0.973386 0.38044
94 2 0.153685 0.218805 0.613486
95 1 0.169142 0.213558 0.592804
39 1 0.251719 0.551755 0.42437
37 2 0.247603 0.578879 0.422001
38 1 0.268836 0.590175 0.431353
18 1 0.47567 0.389672 0.371432
16 2 0.470592 0.40237 0.348303
17 1 0.45166 0.420798 0.347398
148 2 0.0436385 0.429299 0.508151
149 1 0.0408459 0.415537 0.530861
5 1 0.430667 0.43189 0.579314
4 2 0.429489 0.439214 0.552954
6 1 0.432759 0.464717 0.554975
114 1 0.871811 0.655904 0.528546
113 1 0.833715 0.667093 0.543123
112 2 0.860755 0.675114 0.540715
150 1 0.0534415 0.414309 0.487612
70 2 0.591784 0.63784 0.581829
71 1 0.58071 0.630911 0.55746
72 1 0.601173 0.664583 0.582456
58 2 0.901254 0.806565 0.559086
60 1 0.920214 0.816336 0.571677
99 1 0.821043 0.00795795 0.517221
98 1 0.794253 0.991624 0.49241
97 2 0.811291 0.98522 0.512677
59 1 0.905345 0.815689 0.537007
96 1 0.164357 0.236636 0.630772
81 1 0.171255 0.114431 0.788783
10 2 0.232989 0.262167 0.478456
12 1 0.232581 0.24908 0.503716
11 1 0.225735 0.290185 0.475451
133 2 0.727718 0.306652 0.711747
134 1 0.70412 0.295233 0.704301
135 1 0.722381 0.317105 0.734509
69 1 0.5513 0.937397 0.553975
67 2 0.569838 0.942842 0.532833
68 1 0.563723 0.969249 0.528641
79 2 0.163475 0.104095 0.816146
80 1 0.182351 0.104173 0.834821
1 2 0.16374 0.288395 0.668829
3 1 0.14554 0.270811 0.674112
2 1 0.155158 0.311286 0.656078
20 1 0.291997 0.247241 0.755119
19 2 0.280528 0.24845 0.730421
21 1 0.256414 0.242825 0.735404
31 2 0.661098 0.215494 0.601999
33 1 0.646848 0.209215 0.580915
32 1 0.671856 0.193544 0.616713
30 1 0.940868 0.217276 0.712209
28 2 0.916757 0.224133 0.7223
29 1 0.914259 0.212472 0.747432
102 1 0.138092 0.538705 0.837194
100 2 0.162733 0.540048 0.834636
101 1 0.172405 0.534789 0.857449
34 2 0.553258 0.777543 0.758513
35 1 0.553665 0.788946 0.734545
36 1 0.543607 0.795283 0.7747
8 1 0.39207 0.792068 0.697381
7 2 0.378656 0.779941 0.676057
9 1 0.381271 0.792931 0.654374
14 1 0.368323 0.226771 0.968235
52 2 0.233472 0.214844 0.928215
53 1 0.210377 0.211021 0.916472
54 1 0.244345 0.190127 0.926527
139 2 0.442905 0.425404 0.91065
141 1 0.422502 0.406332 0.919854
140 1 0.445341 0.427373 0.882859
15 1 0.360914 0.203692 0.933827
13 2 0.361069 0.229214 0.940936
121 2 0.748952 0.156234 0.87334
123 1 0.730379 0.145104 0.855749
122 1 0.771412 0.16802 0.860332
106 2 0.193421 0.32429 0.915198
108 1 0.19415 0.305976 0.937625
107 1 0.194558 0.350172 0.922219
93 1 0.769439 0.444089 0.721943
91 2 0.791401 0.451273 0.734008
92 1 0.81133 0.434503 0.731758
78 1 0.023912 0.482734 0.903437
89 1 0.774935 0.490065 0.967894
56 1 0.739117 0.496413 0.844522
55 2 0.737464 0.485101 0.819691
57 1 0.724033 0.498474 0.804776
76 2 0.996015 0.477941 0.895596
77 1 0.978609 0.494269 0.911078
146 1 0.231637 0.00578374 0.812366
147 1 0.188303 0.993811 0.818476
145 2 0.215106 0.986474 0.815983
42 1 0.197538 0.101336 0.00494041
ITEM: TIMESTEP
10000
ITEM: NUMBER OF ATOMS
150
ITEM: BOX BOUNDS pp pp pp
3.7071662945604444e+00 3.6292833705439605e+01
3.7071662945604444e+00 3.6292833705439605e+01
3.7071662945604444e+00 3.6292833705439605e+01
ITEM: ATOMS id type xs ys zs
33 1 0.129103 0.988416 0.0966147
47 1 0.542066 0.122568 0.117753
133 2 0.321326 0.962784 0.112025
134 1 0.318194 0.988774 0.0962828
46 2 0.553039 0.09656 0.111769
48 1 0.563665 0.097698 0.0853096
69 1 0.969705 0.865075 0.0145609
36 1 0.864146 0.148483 0.144833
52 2 0.406819 0.168408 0.152712
54 1 0.43048 0.153728 0.16718
53 1 0.382922 0.164591 0.166367
72 1 0.601608 0.205556 0.276188
76 2 0.557478 0.403276 0.0887943
78 1 0.584705 0.397458 0.0914962
77 1 0.543815 0.410022 0.112813
70 2 0.60977 0.216696 0.248644
71 1 0.622475 0.240322 0.255365
109 2 0.154447 0.530532 0.0822135
111 1 0.143298 0.514858 0.060804
110 1 0.171735 0.515971 0.103396
14 1 0.972435 0.486707 0.0967838
15 1 0.998473 0.529383 0.0830256
13 2 0.973466 0.517491 0.0960918
61 2 0.293063 0.540855 0.204377
62 1 0.317565 0.542217 0.221145
63 1 0.292062 0.561828 0.18476
6 1 0.645841 0.314302 0.194518
4 2 0.647108 0.301152 0.166967
5 1 0.621965 0.288488 0.166314
12 1 0.497878 0.473426 0.888703
10 2 0.471046 0.457776 0.878711
136 2 -0.00101793 0.857541 0.208404
138 1 0.00682086 0.86238 0.182226
84 1 0.606633 0.740343 0.03924
82 2 0.594093 0.768761 0.0393243
83 1 0.593609 0.773304 0.0112358
126 1 0.34713 0.0959405 0.0232511
124 2 0.356619 0.0722415 0.00670342
125 1 0.385784 0.0659927 0.00368021
135 1 0.347464 0.955889 0.121443
40 2 0.525442 0.00466071 0.061068
41 1 0.504644 0.985196 0.0649061
42 1 0.551995 0.99813 0.0596028
68 1 0.02187 0.867962 0.0140391
67 2 0.996911 0.868157 0.0297617
73 2 0.741883 0.834569 0.185715
74 1 0.721041 0.857354 0.184931
75 1 0.743196 0.820576 0.209385
24 1 0.93961 0.198643 0.331987
22 2 0.955823 0.185726 0.307717
31 2 0.159151 0.996733 0.0935039
32 1 0.161404 0.00120048 0.0649212
99 1 0.019796 0.372869 0.313955
97 2 0.013347 0.386885 0.285692
35 1 0.831731 0.170396 0.173178
146 1 0.786949 0.0232763 0.494831
145 2 0.815928 0.0210845 0.499657
147 1 0.825164 0.00120543 0.519432
34 2 0.852964 0.173316 0.15491
23 1 0.945251 0.19538 0.283341
9 1 0.459042 0.0855437 0.160869
7 2 0.488259 0.0795118 0.167204
8 1 0.4965 0.0555289 0.150215
98 1 0.0268351 0.413692 0.279917
58 2 0.601376 0.522943 0.60031
60 1 0.632156 0.527285 0.610291
59 1 0.59741 0.531906 0.569644
93 1 0.676549 0.514586 0.114408
91 2 0.689927 0.501054 0.0949082
92 1 0.712822 0.515682 0.0809632
137 1 0.976616 0.84159 0.203781
105 1 0.208989 0.697625 0.259925
103 2 0.203181 0.725067 0.250486
104 1 0.175201 0.732427 0.257691
80 1 0.563979 0.747312 0.379792
79 2 0.562451 0.720959 0.360636
81 1 0.561653 0.728482 0.329684
143 1 0.927032 0.970777 0.277772
144 1 0.898946 -0.00239465 0.313542
142 2 0.910676 0.995607 0.286271
39 1 0.792424 0.274738 0.690479
29 1 0.145685 0.462879 0.369563
30 1 0.116042 0.498018 0.370915
28 2 0.122471 0.471052 0.383807
127 2 0.394323 0.252026 0.441877
57 1 0.934023 0.206824 0.524601
56 1 0.902232 0.233523 0.501425
55 2 0.922682 0.211823 0.498881
20 1 0.155022 0.636021 0.354655
19 2 0.147251 0.61807 0.336697
21 1 0.133814 0.594321 0.346957
129 1 0.381387 0.242784 0.414308
128 1 0.403485 0.228938 0.453682
45 1 0.975328 0.868966 0.644547
43 2 0.99769 0.860592 0.628479
44 1 1.00192 0.831256 0.629941
139 2 0.327772 0.937189 0.309419
141 1 0.302875 0.921235 0.303248
140 1 0.344481 0.937862 0.28288
102 1 0.499244 0.991539 0.682615
100 2 0.472132 0.98196 0.692936
101 1 0.454263 0.987512 0.667751
94 2 0.69897 0.68398 0.314206
96 1 0.71645 0.691582 0.29258
95 1 0.69415 0.710417 0.329075
106 2 0.531509 0.0889432 0.528887
107 1 0.526563 0.0660989 0.511767
108 1 0.533049 0.113502 0.507687
132 1 0.658356 0.13096 0.65475
130 2 0.671304 0.13429 0.628757
131 1 0.667137 0.105442 0.618478
37 2 0.794932 0.269261 0.659347
38 1 0.816658 0.285637 0.652017
118 2 0.8428 0.201309 0.833598
119 1 0.813451 0.191656 0.835981
120 1 0.840169 0.230206 0.832986
85 2 0.0694718 0.524616 0.585848
86 1 0.070934 0.530141 0.557638
87 1 0.0741804 0.551135 0.601018
50 1 0.443165 0.424916 0.568965
49 2 0.431895 0.420395 0.546109
51 1 0.449755 0.401672 0.534012
113 1 0.276734 0.728569 0.725379
114 1 0.312926 0.758345 0.720235
112 2 0.304149 0.732131 0.711453
123 1 0.795283 0.544112 0.836339
65 1 0.075495 0.716251 0.771767
64 2 0.0636716 0.735139 0.751677
66 1 0.0362332 0.725943 0.740365
1 2 0.600626 0.989854 0.858949
3 1 0.591937 1.0072 0.880928
2 1 0.626735 0.00321319 0.848674
117 1 0.842137 0.796543 0.71881
116 1 0.850426 0.788108 0.671162
115 2 0.858717 0.7837 0.697454
90 1 0.0843513 0.134507 0.920481
88 2 0.0641174 0.142673 0.897281
89 1 0.0746349 0.154466 0.874432
17 1 0.461903 0.206019 0.682885
18 1 0.465324 0.179408 0.718326
16 2 0.480924 0.188412 0.694572
11 1 0.454736 0.473858 0.855641
26 1 0.0438951 0.951159 0.964411
25 2 0.0696471 0.94343 0.963581
27 1 0.0807202 0.96242 0.943525
121 2 0.81197 0.56728 0.837425
122 1 0.792152 0.587675 0.834626
148 2 0.316881 0.827778 0.9389
149 1 0.320963 0.83694 0.911328
150 1 0.315066 0.854699 0.95672
ITEM: TIMESTEP
15000
ITEM: NUMBER OF ATOMS
150
ITEM: BOX BOUNDS pp pp pp
4.8861464206363969e+00 3.5113853579363216e+01
4.8861464206363969e+00 3.5113853579363216e+01
4.8861464206363969e+00 3.5113853579363216e+01
ITEM: ATOMS id type xs ys zs
19 2 0.126946 0.031395 0.18563
21 1 0.161581 0.0336719 0.185437
114 1 0.541661 0.103653 0.120829
112 2 0.522697 0.097643 0.097642
113 1 0.536926 0.0912475 0.065695
137 1 0.683136 0.196008 0.158634
81 1 0.706786 0.143142 0.0268378
80 1 0.701857 0.196885 0.0331522
79 2 0.7132 0.171183 0.0435751
73 2 0.128365 0.359074 0.193077
74 1 0.156177 0.371566 0.184537
75 1 0.109094 0.3506 0.167007
105 1 0.514182 0.309777 0.163919
103 2 0.541541 0.301242 0.17183
143 1 0.583093 0.348292 0.0112087
142 2 0.56567 0.353957 0.0407226
144 1 0.543292 0.377317 0.0422018
138 1 0.721742 0.218976 0.12298
136 2 0.697885 0.222959 0.144756
87 1 0.893823 0.238443 0.0102723
126 1 0.444036 0.51424 0.147264
124 2 0.45548 0.484657 0.138136
125 1 0.428744 0.469103 0.143033
6 1 0.783103 0.765687 0.157918
13 2 0.751123 0.68091 0.190838
14 1 0.751846 0.710884 0.188943
4 2 0.758178 0.773838 0.178036
24 1 0.782985 0.876125 0.0856727
22 2 0.782128 0.863939 0.0582618
101 1 0.757254 0.987202 0.187896
5 1 0.759155 0.805422 0.177272
23 1 0.806658 0.877739 0.037544
20 1 0.119982 0.0145144 0.21468
102 1 0.787719 0.0134721 0.215885
100 2 0.761215 0.0151668 0.200838
131 1 0.797976 0.146212 0.329556
130 2 0.794004 0.158628 0.301456
132 1 0.822865 0.160392 0.292692
104 1 0.536896 0.298081 0.201451
145 2 0.712163 0.203815 0.302692
147 1 0.678427 0.200742 0.299223
146 1 0.714967 0.232855 0.310573
118 2 0.865823 0.216829 0.257362
120 1 0.879879 0.245253 0.262675
119 1 0.865743 0.216384 0.227072
12 1 0.316015 0.580582 0.313771
10 2 0.334892 0.594782 0.293816
32 1 0.242717 0.573126 0.242572
33 1 0.210573 0.593542 0.20578
31 2 0.228842 0.598906 0.233668
90 1 0.431635 0.4665 0.371228
88 2 0.462128 0.477253 0.371721
89 1 0.47601 0.45299 0.386919
69 1 0.178643 0.705283 0.250146
68 1 0.155013 0.667113 0.21691
67 2 0.173861 0.693729 0.21779
11 1 0.349789 0.622542 0.298195
15 1 0.721613 0.678118 0.202271
76 2 0.717744 0.662513 0.292292
78 1 0.731715 0.678375 0.318989
77 1 0.691724 0.683293 0.284759
98 1 0.612958 0.799501 0.256062
46 2 0.106055 0.912033 0.35449
48 1 0.119719 0.895839 0.329001
47 1 0.087258 0.929429 0.338911
122 1 0.582042 0.932245 0.232826
123 1 0.62029 0.966174 0.237782
121 2 0.606237 0.942785 0.255086
99 1 0.629339 0.848771 0.236741
97 2 0.614268 0.836715 0.260488
29 1 0.947957 0.987778 0.258422
30 1 0.9057 0.997486 0.286752
28 2 0.934065 0.979404 0.286799
134 1 0.941155 0.88277 0.380889
93 1 0.0910705 0.174667 0.540708
91 2 0.0604873 0.161262 0.534986
92 1 0.0606463 0.133015 0.525051
18 1 0.54517 0.063491 0.4677
16 2 0.523448 0.0536127 0.488741
17 1 0.53025 0.0246753 0.497493
148 2 0.683102 0.126741 0.536389
149 1 0.689198 0.12186 0.504957
150 1 0.67439 0.154656 0.545598
50 1 0.0639004 0.282942 0.513093
49 2 0.0706522 0.251083 0.501559
51 1 0.0450578 0.234248 0.51621
127 2 0.116018 0.334622 0.468284
129 1 0.120725 0.302412 0.467693
128 1 0.127243 0.345571 0.496144
65 1 0.387001 0.392396 0.500624
64 2 0.405843 0.393826 0.52341
107 1 0.0627911 0.475504 0.439912
106 2 0.0756824 0.467209 0.468244
108 1 0.087816 0.488012 0.48348
66 1 0.433708 0.41637 0.522158
1 2 0.106705 0.788454 0.513535
2 1 0.136415 0.782682 0.499764
39 1 0.718056 0.653579 0.508608
37 2 0.741655 0.664202 0.489073
38 1 0.760248 0.688075 0.502446
3 1 0.103351 0.820102 0.514728
63 1 0.279102 0.989474 0.589885
133 2 0.92718 0.897176 0.404349
135 1 0.93444 0.878963 0.430459
71 1 0.473011 0.116108 0.68645
70 2 0.452433 0.0932638 0.697761
72 1 0.457694 0.0864196 0.728108
59 1 0.704223 0.0141477 0.767462
58 2 0.69235 0.0474269 0.75857
60 1 0.705707 0.0658221 0.780551
57 1 0.117854 0.575569 0.767637
9 1 0.184614 0.783945 0.789042
117 1 0.54551 0.710364 0.733965
115 2 0.532899 0.734873 0.751396
116 1 0.508087 0.725891 0.76139
45 1 0.678374 0.678801 0.706373
44 1 0.71321 0.639389 0.706869
43 2 0.708792 0.669723 0.700632
7 2 0.198326 0.809477 0.7778
34 2 0.118661 0.914209 0.748093
36 1 0.137963 0.89997 0.77117
35 1 0.109429 0.943675 0.753936
61 2 0.272886 0.984377 0.619738
62 1 0.269456 0.951966 0.617459
8 1 0.20884 0.811246 0.744069
139 2 0.344063 0.942721 0.786362
140 1 0.337652 0.972211 0.779451
40 2 0.346288 0.914052 0.636034
41 1 0.321366 0.909224 0.622219
42 1 0.367098 0.89239 0.643264
26 1 0.797846 0.958013 0.685901
27 1 0.772482 0.92857 0.652213
25 2 0.769165 0.952107 0.670802
85 2 0.88511 0.259502 0.988194
86 1 0.856849 0.252774 0.971235
56 1 0.143996 0.575513 0.818611
55 2 0.116326 0.568986 0.802678
95 1 0.197469 0.673597 0.828007
94 2 0.167011 0.677342 0.835748
96 1 0.145741 0.657288 0.821168
111 1 0.251938 0.707737 0.841134
110 1 0.287274 0.704302 0.876236
109 2 0.27022 0.725288 0.856793
82 2 0.612877 0.677712 0.897699
83 1 0.647959 0.684606 0.892899
84 1 0.603323 0.681734 0.870241
53 1 0.868183 0.775672 0.997832
52 2 0.887443 0.74616 0.995383
54 1 0.874396 0.724731 0.978977
141 1 0.318595 0.936844 0.801683
ITEM: TIMESTEP
20000
ITEM: NUMBER OF ATOMS
150
ITEM: BOX BOUNDS pp pp pp
5.8235187684958980e+00 3.4176481231503686e+01
5.8235187684958980e+00 3.4176481231503686e+01
5.8235187684958980e+00 3.4176481231503686e+01
ITEM: ATOMS id type xs ys zs
42 1 0.0112221 0.222041 0.233308
73 2 0.496063 0.218604 0.0847193
75 1 0.496372 0.195099 0.0576822
82 2 0.513093 0.0189161 0.160702
83 1 0.531486 0.0157019 0.134351
119 1 0.870041 0.104134 0.0840353
118 2 0.886826 0.1296 0.0758281
120 1 0.903899 0.135868 0.105939
40 2 0.983819 0.200279 0.228343
74 1 0.499878 0.254434 0.081565
117 1 0.493866 0.332249 0.204751
115 2 0.497084 0.337156 0.241766
139 2 0.490204 0.438547 0.123577
141 1 0.469882 0.42703 0.152591
127 2 0.735184 0.324537 0.159142
129 1 0.72828 0.304074 0.18354
128 1 0.724559 0.358758 0.16914
140 1 0.511797 0.465437 0.133728
69 1 0.814193 0.4885 0.102116
67 2 0.806432 0.458054 0.0929184
68 1 0.783695 0.454461 0.0722319
34 2 0.185321 0.596137 0.219101
36 1 0.184956 0.624553 0.236203
35 1 0.183717 0.56923 0.237924
111 1 0.791711 0.748757 0.0939824
84 1 0.484528 0.99979 0.155672
4 2 0.310081 0.795049 0.120893
5 1 0.304518 0.804059 0.086469
6 1 0.275878 0.795406 0.129423
53 1 0.34905 0.830566 0.0517302
52 2 0.337401 0.863295 0.0381783
54 1 0.352236 0.894597 0.0485616
44 1 0.401768 0.984055 0.0127819
43 2 0.396207 0.958991 0.040582
45 1 0.408744 0.963997 0.068527
109 2 0.780738 0.774945 0.0757814
110 1 0.802225 0.803275 0.0752848
87 1 0.999153 0.826521 0.193273
85 2 0.999802 0.804318 0.167288
86 1 0.995255 0.826492 0.141883
93 1 0.360258 0.18788 0.416809
91 2 0.331931 0.180516 0.40887
92 1 0.308907 0.198341 0.427447
41 1 0.964964 0.195941 0.259148
116 1 0.511297 0.309147 0.252966
20 1 0.593465 0.499079 0.434898
3 1 0.714605 0.482931 0.472979
24 1 0.811883 0.476602 0.43398
22 2 0.809955 0.497126 0.460372
23 1 0.787459 0.486587 0.489116
61 2 0.137887 0.701982 0.311361
62 1 0.141063 0.739758 0.31593
63 1 0.161166 0.678814 0.320465
21 1 0.646915 0.508833 0.462464
19 2 0.624511 0.519879 0.440309
1 2 0.708156 0.505518 0.499903
105 1 0.106916 0.891202 0.341508
103 2 0.120214 0.922247 0.32892
104 1 0.112485 0.942061 0.359446
29 1 0.644297 0.8067 0.320183
28 2 0.619409 0.827804 0.311172
30 1 0.628264 0.858605 0.301312
64 2 0.956022 0.957391 0.389244
66 1 0.979167 0.986876 0.382662
65 1 0.924942 0.961854 0.38
9 1 0.813789 0.783615 0.343569
7 2 0.787776 0.79399 0.327613
8 1 0.806614 0.82097 0.309433
142 2 0.243458 0.208307 0.652173
144 1 0.212644 0.192872 0.652101
145 2 0.0202271 0.200738 0.681555
147 1 0.0482203 0.17917 0.688853
146 1 0.00107274 0.180753 0.663115
143 1 0.251353 0.201628 0.685214
96 1 0.479843 0.126522 0.686055
124 2 0.722672 0.12893 0.658896
125 1 0.71711 0.0933168 0.66011
126 1 0.731545 0.142445 0.628573
95 1 0.510263 0.0877137 0.692452
94 2 0.507923 0.117421 0.703221
18 1 0.107082 0.36021 0.667664
16 2 0.0774072 0.358974 0.653027
17 1 0.0621153 0.374823 0.679451
112 2 0.0631571 0.45999 0.720812
113 1 0.0319746 0.449045 0.707416
76 2 0.496443 0.338968 0.638922
77 1 0.480355 0.352647 0.662434
26 1 0.396772 0.332094 0.705336
27 1 0.429276 0.30024 0.669238
25 2 0.419308 0.306654 0.703049
2 1 0.684991 0.490994 0.521025
78 1 0.523273 0.353186 0.635924
39 1 0.701105 0.730134 0.749021
148 2 0.835072 0.681121 0.569997
149 1 0.842835 0.691094 0.535106
150 1 0.82221 0.706582 0.594464
31 2 0.494653 0.819171 0.637431
33 1 0.469366 0.842471 0.64326
32 1 0.524381 0.830566 0.646171
71 1 0.592147 0.786291 0.603944
70 2 0.60447 0.759597 0.625475
72 1 0.604104 0.765531 0.659135
37 2 0.70894 0.755117 0.730365
38 1 0.735891 0.776906 0.740037
107 1 0.948502 0.152268 0.863689
106 2 0.916145 0.161648 0.873837
108 1 0.893428 0.138775 0.874435
138 1 0.852989 0.184922 0.984275
137 1 0.904146 0.202683 0.964174
136 2 0.882582 0.178186 0.974004
122 1 0.105108 0.290285 0.96673
132 1 0.0305751 0.347131 0.829975
123 1 0.0921838 0.339227 0.993865
121 2 0.0977819 0.321346 0.965191
114 1 0.0607132 0.469212 0.750911
131 1 0.0221539 0.397212 0.825323
130 2 0.0267134 0.374093 0.850801
98 1 0.496177 0.492106 0.926713
134 1 0.400748 0.475756 0.756784
133 2 0.371396 0.493823 0.76393
135 1 0.36354 0.491589 0.797619
97 2 0.517021 0.482116 0.904889
10 2 0.517894 0.388011 0.790872
11 1 0.507085 0.413688 0.80957
12 1 0.501084 0.365292 0.809697
58 2 0.823794 0.491683 0.823479
81 1 0.896856 0.411581 0.893433
80 1 0.887886 0.35626 0.913015
79 2 0.886977 0.380365 0.889285
15 1 0.071094 0.745051 0.893503
48 1 0.304274 0.634962 0.813912
47 1 0.266119 0.606175 0.794091
46 2 0.294211 0.61954 0.783566
99 1 0.537578 0.507787 0.899583
50 1 0.724293 0.5842 0.863291
49 2 0.734627 0.55147 0.861058
51 1 0.749491 0.551198 0.890315
100 2 0.548432 0.612508 0.981846
102 1 0.540044 0.642261 0.991058
101 1 0.52076 0.598083 0.96883
60 1 0.803926 0.509724 0.811294
59 1 0.846376 0.514635 0.83806
55 2 0.229187 0.842027 0.891411
57 1 0.220523 0.804962 0.885216
14 1 0.0451495 0.75097 0.938822
13 2 0.0654301 0.769264 0.916192
56 1 0.262049 0.849049 0.888694
88 2 0.827965 0.8518 0.941152
90 1 0.849563 0.83366 0.921672
89 1 0.799472 0.838504 0.957557
ITEM: TIMESTEP
25000
ITEM: NUMBER OF ATOMS
150
ITEM: BOX BOUNDS pp pp pp
6.6035673232409984e+00 3.3396432676758508e+01
6.6035673232409984e+00 3.3396432676758508e+01
6.6035673232409984e+00 3.3396432676758508e+01
ITEM: ATOMS id type xs ys zs
83 1 0.908039 0.0566509 0.144672
82 2 0.937904 0.0541354 0.170699
84 1 0.967402 0.0729565 0.166386
149 1 0.809151 0.0825219 0.058995
148 2 0.799497 0.0594613 0.0824056
150 1 0.790722 0.0789183 0.115176
67 2 0.0536474 0.461084 0.120219
69 1 0.0578849 0.447171 0.156894
68 1 0.0225464 0.480451 0.11974
34 2 0.0533121 0.483521 0.231558
35 1 0.0726025 0.45455 0.229381
38 1 0.501159 0.347016 0.24519
80 1 0.680708 0.369418 0.235802
79 2 0.680935 0.331141 0.243554
39 1 0.528251 0.391397 0.202708
37 2 0.525685 0.358287 0.214393
81 1 0.656491 0.320958 0.213843
90 1 0.716974 0.390542 0.122419
88 2 0.754035 0.385262 0.104831
89 1 0.774486 0.404187 0.131174
143 1 0.38945 0.612302 0.121785
142 2 0.387927 0.606377 0.078832
144 1 0.354381 0.589593 0.0771665
52 2 0.302554 0.747777 0.203687
54 1 0.323428 0.747921 0.17481
137 1 0.706049 0.733776 0.0673056
136 2 0.739137 0.73534 0.0480037
6 1 0.847009 0.58105 0.0746772
4 2 0.82968 0.60419 0.0556531
5 1 0.809328 0.62878 0.0721521
138 1 0.77185 0.734912 0.0628615
60 1 0.0631357 0.781442 0.23029
53 1 0.295359 0.777939 0.222569
9 1 0.656901 0.81363 0.199186
7 2 0.63464 0.791514 0.221712
8 1 0.64965 0.765476 0.243785
57 1 0.84822 0.940014 0.0189951
55 2 0.815733 0.927662 0.0150685
3 1 0.159129 0.187315 0.260788
1 2 0.16048 0.226508 0.255626
2 1 0.127869 0.235111 0.259072
132 1 0.138751 0.0568529 0.422216
131 1 0.150275 0.0206303 0.473085
130 2 0.126497 0.0397505 0.450222
14 1 0.569126 0.00360644 0.304035
15 1 0.53238 0.0468884 0.310437
13 2 0.559534 0.0342275 0.288173
85 2 0.871265 0.133451 0.360366
86 1 0.851242 0.151119 0.334391
87 1 0.853429 0.10971 0.380021
71 1 0.929249 0.0683547 0.407806
70 2 0.893849 0.0630876 0.41693
72 1 0.87599 0.0858047 0.404645
146 1 0.141784 0.253765 0.386918
145 2 0.113304 0.268173 0.368961
147 1 0.126633 0.298562 0.365601
103 2 0.483157 0.301481 0.448794
104 1 0.47725 0.324914 0.469543
105 1 0.516647 0.313728 0.439401
50 1 0.75181 0.4423 0.347642
49 2 0.764818 0.452751 0.378491
51 1 0.799035 0.470438 0.386391
59 1 0.09107 0.743453 0.264839
76 2 0.150161 0.700231 0.480797
78 1 0.163424 0.724514 0.451491
77 1 0.129521 0.73046 0.49647
27 1 0.208573 0.56363 0.264702
111 1 0.11271 0.69944 0.365808
109 2 0.11826 0.716358 0.394842
110 1 0.148091 0.706946 0.413044
36 1 0.0618777 0.502724 0.261765
25 2 0.208383 0.563275 0.301732
26 1 0.224056 0.591858 0.314464
17 1 0.738997 0.747063 0.483345
18 1 0.797213 0.725829 0.459784
16 2 0.773977 0.739757 0.485996
91 2 0.794514 0.545023 0.319754
92 1 0.828332 0.554118 0.311223
93 1 0.762617 0.566224 0.302425
58 2 0.100483 0.773281 0.250431
119 1 0.549542 0.0111185 0.700989
24 1 0.946851 0.105457 0.624513
23 1 0.969138 0.0678655 0.655747
22 2 0.956637 0.0991056 0.658645
128 1 0.0316455 0.28666 0.672325
127 2 0.0175948 0.287003 0.707699
129 1 0.0425523 0.279161 0.727994
123 1 0.263592 0.443778 0.590527
122 1 0.292485 0.3961 0.62148
121 2 0.297448 0.431995 0.610684
65 1 0.443192 0.268643 0.587253
64 2 0.467692 0.293612 0.580095
66 1 0.482561 0.278462 0.547613
41 1 0.297713 0.494037 0.738429
20 1 0.473037 0.498683 0.546329
33 1 0.137205 0.508352 0.55315
31 2 0.12545 0.526965 0.522018
32 1 0.0988407 0.552517 0.522227
96 1 0.334508 0.526797 0.559447
94 2 0.348156 0.559425 0.575371
95 1 0.325673 0.586248 0.57835
40 2 0.281033 0.509211 0.713138
42 1 0.299608 0.526978 0.68766
21 1 0.528647 0.510638 0.544702
19 2 0.504389 0.507261 0.52149
135 1 0.602797 0.844013 0.726487
118 2 0.568833 0.979913 0.712769
120 1 0.552721 0.950427 0.707733
126 1 0.905297 0.912765 0.647595
124 2 0.912613 0.876749 0.651
125 1 0.888205 0.850533 0.662284
140 1 0.0662045 0.0200039 0.844993
112 2 0.068531 0.149531 0.970878
113 1 0.0354526 0.156473 0.984359
114 1 0.0787406 0.126057 0.989449
74 1 0.30338 0.21665 0.950567
100 2 0.81464 0.0441969 0.776075
102 1 0.81096 0.070634 0.799691
101 1 0.848727 0.0483172 0.775827
48 1 0.138101 0.467444 0.822803
47 1 0.113983 0.430772 0.778133
46 2 0.114364 0.445338 0.811794
73 2 0.300393 0.252506 0.957932
62 1 0.283349 0.363637 0.871285
61 2 0.273692 0.361006 0.838407
63 1 0.289184 0.32723 0.834742
75 1 0.263743 0.252349 0.976754
30 1 0.561544 0.484472 0.942786
44 1 0.081532 0.68493 0.954006
43 2 0.059082 0.693374 0.92858
45 1 0.0221483 0.681376 0.931352
29 1 0.51749 0.517255 0.965856
117 1 0.736699 0.68621 0.788521
115 2 0.748433 0.719423 0.799834
28 2 0.550864 0.521287 0.947544
116 1 0.788 0.720085 0.811038
11 1 0.793596 0.691973 0.861204
10 2 0.816468 0.655345 0.846377
12 1 0.795983 0.627553 0.834841
141 1 0.0601924 0.981543 0.799379
139 2 0.049691 0.994543 0.832264