#LAMMPS NVE

108 atoms

1 atom types

0.0   6.0   xlo xhi
0.0   6.0   ylo yhi
0.0   6.0   zlo zhi

Masses

1  1.0

Atoms

           1           1   0.1000000000000000        0.1000000000000000        0.1000000000000000     
           2           1   1.3599210498948731        0.1000000000000000        0.1000000000000000     
           3           1   2.6198420997897460        0.1000000000000000        0.1000000000000000     
           4           1   3.8797631496846190        0.1000000000000000        0.1000000000000000     
           5           1   5.1396841995794915        0.1000000000000000        0.1000000000000000     
           6           1   0.1000000000000000        1.3599210498948731        0.1000000000000000     
           7           1   1.3599210498948731        1.3599210498948731        0.1000000000000000     
           8           1   2.6198420997897460        1.3599210498948731        0.1000000000000000     
           9           1   3.8797631496846190        1.3599210498948731        0.1000000000000000     
          10           1   5.1396841995794915        1.3599210498948731        0.1000000000000000     
          11           1   0.1000000000000000        2.6198420997897460        0.1000000000000000     
          12           1   1.3599210498948731        2.6198420997897460        0.1000000000000000     
          13           1   2.6198420997897460        2.6198420997897460        0.1000000000000000     
          14           1   3.8797631496846190        2.6198420997897460        0.1000000000000000     
          15           1   5.1396841995794915        2.6198420997897460        0.1000000000000000     
          16           1   0.1000000000000000        3.8797631496846190        0.1000000000000000     
          17           1   1.3599210498948731        3.8797631496846190        0.1000000000000000     
          18           1   2.6198420997897460        3.8797631496846190        0.1000000000000000     
          19           1   3.8797631496846190        3.8797631496846190        0.1000000000000000     
          20           1   5.1396841995794915        3.8797631496846190        0.1000000000000000     
          21           1   0.1000000000000000        5.1396841995794915        0.1000000000000000     
          22           1   1.3599210498948731        5.1396841995794915        0.1000000000000000     
          23           1   2.6198420997897460        5.1396841995794915        0.1000000000000000     
          24           1   3.8797631496846190        5.1396841995794915        0.1000000000000000     
          25           1   5.1396841995794915        5.1396841995794915        0.1000000000000000     
          26           1   0.1000000000000000        0.1000000000000000        1.3599210498948731     
          27           1   1.3599210498948731        0.1000000000000000        1.3599210498948731     
          28           1   2.6198420997897460        0.1000000000000000        1.3599210498948731     
          29           1   3.8797631496846190        0.1000000000000000        1.3599210498948731     
          30           1   5.1396841995794915        0.1000000000000000        1.3599210498948731     
          31           1   0.1000000000000000        1.3599210498948731        1.3599210498948731     
          32           1   1.3599210498948731        1.3599210498948731        1.3599210498948731     
          33           1   2.6198420997897460        1.3599210498948731        1.3599210498948731     
          34           1   3.8797631496846190        1.3599210498948731        1.3599210498948731     
          35           1   5.1396841995794915        1.3599210498948731        1.3599210498948731     
          36           1   0.1000000000000000        2.6198420997897460        1.3599210498948731     
          37           1   1.3599210498948731        2.6198420997897460        1.3599210498948731     
          38           1   2.6198420997897460        2.6198420997897460        1.3599210498948731     
          39           1   3.8797631496846190        2.6198420997897460        1.3599210498948731     
          40           1   5.1396841995794915        2.6198420997897460        1.3599210498948731     
          41           1   0.1000000000000000        3.8797631496846190        1.3599210498948731     
          42           1   1.3599210498948731        3.8797631496846190        1.3599210498948731     
          43           1   2.6198420997897460        3.8797631496846190        1.3599210498948731     
          44           1   3.8797631496846190        3.8797631496846190        1.3599210498948731     
          45           1   5.1396841995794915        3.8797631496846190        1.3599210498948731     
          46           1   0.1000000000000000        5.1396841995794915        1.3599210498948731     
          47           1   1.3599210498948731        5.1396841995794915        1.3599210498948731     
          48           1   2.6198420997897460        5.1396841995794915        1.3599210498948731     
          49           1   3.8797631496846190        5.1396841995794915        1.3599210498948731     
          50           1   5.1396841995794915        5.1396841995794915        1.3599210498948731     
          51           1   0.1000000000000000        0.1000000000000000        2.6198420997897460     
          52           1   1.3599210498948731        0.1000000000000000        2.6198420997897460     
          53           1   2.6198420997897460        0.1000000000000000        2.6198420997897460     
          54           1   3.8797631496846190        0.1000000000000000        2.6198420997897460     
          55           1   5.1396841995794915        0.1000000000000000        2.6198420997897460     
          56           1   0.1000000000000000        1.3599210498948731        2.6198420997897460     
          57           1   1.3599210498948731        1.3599210498948731        2.6198420997897460     
          58           1   2.6198420997897460        1.3599210498948731        2.6198420997897460     
          59           1   3.8797631496846190        1.3599210498948731        2.6198420997897460     
          60           1   5.1396841995794915        1.3599210498948731        2.6198420997897460     
          61           1   0.1000000000000000        2.6198420997897460        2.6198420997897460     
          62           1   1.3599210498948731        2.6198420997897460        2.6198420997897460     
          63           1   2.6198420997897460        2.6198420997897460        2.6198420997897460     
          64           1   3.8797631496846190        2.6198420997897460        2.6198420997897460     
          65           1   5.1396841995794915        2.6198420997897460        2.6198420997897460     
          66           1   0.1000000000000000        3.8797631496846190        2.6198420997897460     
          67           1   1.3599210498948731        3.8797631496846190        2.6198420997897460     
          68           1   2.6198420997897460        3.8797631496846190        2.6198420997897460     
          69           1   3.8797631496846190        3.8797631496846190        2.6198420997897460     
          70           1   5.1396841995794915        3.8797631496846190        2.6198420997897460     
          71           1   0.1000000000000000        5.1396841995794915        2.6198420997897460     
          72           1   1.3599210498948731        5.1396841995794915        2.6198420997897460     
          73           1   2.6198420997897460        5.1396841995794915        2.6198420997897460     
          74           1   3.8797631496846190        5.1396841995794915        2.6198420997897460     
          75           1   5.1396841995794915        5.1396841995794915        2.6198420997897460     
          76           1   0.1000000000000000        0.1000000000000000        3.8797631496846190     
          77           1   1.3599210498948731        0.1000000000000000        3.8797631496846190     
          78           1   2.6198420997897460        0.1000000000000000        3.8797631496846190     
          79           1   3.8797631496846190        0.1000000000000000        3.8797631496846190     
          80           1   5.1396841995794915        0.1000000000000000        3.8797631496846190     
          81           1   0.1000000000000000        1.3599210498948731        3.8797631496846190     
          82           1   1.3599210498948731        1.3599210498948731        3.8797631496846190     
          83           1   2.6198420997897460        1.3599210498948731        3.8797631496846190     
          84           1   3.8797631496846190        1.3599210498948731        3.8797631496846190     
          85           1   5.1396841995794915        1.3599210498948731        3.8797631496846190     
          86           1   0.1000000000000000        2.6198420997897460        3.8797631496846190     
          87           1   1.3599210498948731        2.6198420997897460        3.8797631496846190     
          88           1   2.6198420997897460        2.6198420997897460        3.8797631496846190     
          89           1   3.8797631496846190        2.6198420997897460        3.8797631496846190     
          90           1   5.1396841995794915        2.6198420997897460        3.8797631496846190     
          91           1   0.1000000000000000        3.8797631496846190        3.8797631496846190     
          92           1   1.3599210498948731        3.8797631496846190        3.8797631496846190     
          93           1   2.6198420997897460        3.8797631496846190        3.8797631496846190     
          94           1   3.8797631496846190        3.8797631496846190        3.8797631496846190     
          95           1   5.1396841995794915        3.8797631496846190        3.8797631496846190     
          96           1   0.1000000000000000        5.1396841995794915        3.8797631496846190     
          97           1   1.3599210498948731        5.1396841995794915        3.8797631496846190     
          98           1   2.6198420997897460        5.1396841995794915        3.8797631496846190     
          99           1   3.8797631496846190        5.1396841995794915        3.8797631496846190     
         100           1   5.1396841995794915        5.1396841995794915        3.8797631496846190     
         101           1   0.1000000000000000        0.1000000000000000        5.1396841995794915     
         102           1   1.3599210498948731        0.1000000000000000        5.1396841995794915     
         103           1   2.6198420997897460        0.1000000000000000        5.1396841995794915     
         104           1   3.8797631496846190        0.1000000000000000        5.1396841995794915     
         105           1   5.1396841995794915        0.1000000000000000        5.1396841995794915     
         106           1   0.1000000000000000        1.3599210498948731        5.1396841995794915     
         107           1   1.3599210498948731        1.3599210498948731        5.1396841995794915     
         108           1   2.6198420997897460        1.3599210498948731        5.1396841995794915     
