ITEM: TIMESTEP
0
ITEM: NUMBER OF ATOMS
300
ITEM: BOX BOUNDS pp pp pp
-1.0000000000000000e+02 1.0000000000000000e+02
-1.0000000000000000e+02 1.0000000000000000e+02
-1.0000000000000000e+02 1.0000000000000000e+02
ITEM: ATOMS id type xs ys zs
118 1 0.157188 0.496155 0.01834
119 2 0.159366 0.494058 0.0143581
120 2 0.157444 0.501133 0.0179507
16 1 0.3137 0.823529 0.0161536
17 2 0.314881 0.824239 0.02096
18 2 0.315995 0.819421 0.0144626
126 2 0.410151 0.542238 0.058875
124 1 0.408664 0.546897 0.0578352
223 1 0.138686 0.604803 0.0547293
224 2 0.143165 0.607003 0.055043
225 2 0.135406 0.607982 0.0526962
277 1 0.295477 0.236898 0.0770702
278 2 0.298441 0.240889 0.0776024
279 2 0.290756 0.238179 0.0781036
88 1 0.54414 0.233895 0.0868527
90 2 0.539327 0.234207 0.0881708
89 2 0.546611 0.237869 0.0886149
79 1 0.724232 0.466446 0.0874239
80 2 0.724564 0.47102 0.0894166
125 2 0.404702 0.548051 0.0606585
4 1 0.562265 0.935617 0.0871214
5 2 0.561254 0.930723 0.087284
6 2 0.566837 0.936436 0.0889705
15 2 0.0302593 0.992649 0.0873562
13 1 0.0337754 0.989188 0.0881655
14 2 0.0382426 0.991404 0.0885316
46 1 0.105248 0.0292264 0.102607
47 2 0.109664 0.0315675 0.102744
48 2 0.101569 0.0325784 0.103088
31 1 0.430035 0.327591 0.116032
32 2 0.433117 0.331348 0.114853
33 2 0.425298 0.329064 0.115409
70 1 0.698004 0.374724 0.0971395
71 2 0.702464 0.372735 0.0982147
72 2 0.69801 0.376376 0.0924202
81 2 0.724131 0.463038 0.0910812
204 2 0.605229 0.0274419 0.132197
202 1 0.606959 0.0281916 0.136828
229 1 0.67349 0.0171563 0.131787
230 2 0.671446 0.015063 0.135842
231 2 0.669941 0.0179619 0.128359
203 2 0.604739 0.0322113 0.138806
21 2 0.945583 0.120648 0.123362
19 1 0.945814 0.124511 0.126528
20 2 0.950477 0.126315 0.126618
250 1 0.436332 0.289882 0.134499
251 2 0.439898 0.293237 0.13348
252 2 0.431849 0.292076 0.13421
121 1 0.751476 0.290679 0.128071
122 2 0.755071 0.293746 0.129705
123 2 0.74703 0.292911 0.128564
73 1 0.208133 0.716871 0.177541
75 2 0.204526 0.720223 0.176674
74 2 0.212566 0.719182 0.177649
127 1 0.677829 0.93288 0.158805
128 2 0.679118 0.936401 0.162113
129 2 0.680228 0.933686 0.154493
232 1 0.460218 0.985316 0.177547
233 2 0.4597 0.98273 0.181795
234 2 0.465037 0.986469 0.176874
43 1 0.0554618 0.187213 0.187375
44 2 0.0544675 0.182314 0.187256
45 2 0.0561062 0.188667 0.192116
217 1 0.468544 0.183401 0.196855
218 2 0.47169 0.187156 0.195853
219 2 0.463857 0.185139 0.196964
85 1 0.290914 0.255243 0.204712
86 2 0.294964 0.25816 0.205023
87 2 0.28684 0.258098 0.204214
94 1 0.632548 0.950206 0.204262
95 2 0.636313 0.953495 0.204342
96 2 0.628197 0.952645 0.204619
7 1 0.51783 0.571353 0.215432
9 2 0.521765 0.568583 0.216792
8 2 0.518786 0.576173 0.216357
142 1 0.54978 0.887909 0.231922
143 2 0.554488 0.889119 0.230753
144 2 0.546632 0.891008 0.22958
148 1 0.920773 0.904888 0.242329
149 2 0.916176 0.90681 0.241909
150 2 0.923669 0.906677 0.238667
259 1 0.311668 0.692166 0.252264
260 2 0.315806 0.691053 0.249687
261 2 0.312616 0.695959 0.25538
103 1 0.180986 0.0497624 0.297656
105 2 0.177608 0.0530009 0.299416
104 2 0.184403 0.0488342 0.301186
239 2 0.0287342 0.782325 0.286322
238 1 0.0321063 0.785564 0.284551
240 2 0.0339031 0.788323 0.288314
106 1 0.338431 0.0472685 0.331452
107 2 0.338626 0.0483931 0.326584
271 1 0.937963 0.633741 0.311394
272 2 0.936357 0.631462 0.315545
273 2 0.935336 0.632098 0.30747
108 2 0.3386 0.051479 0.334143
151 1 0.952568 0.301128 0.360617
152 2 0.956597 0.304087 0.360505
153 2 0.948448 0.303935 0.360998
196 1 0.831114 0.659397 0.347673
197 2 0.828485 0.661811 0.344171
198 2 0.834479 0.656422 0.345475
28 1 0.590043 0.868914 0.344877
29 2 0.592073 0.865271 0.347637
30 2 0.593549 0.872291 0.343738
157 1 0.42877 0.976126 0.340422
158 2 0.431058 0.979625 0.343165
159 2 0.431951 0.972376 0.339515
244 1 0.139867 0.127427 0.386949
245 2 0.138427 0.13006 0.390948
246 2 0.136735 0.128314 0.383154
130 1 0.415801 0.401123 0.387784
131 2 0.418307 0.405017 0.389669
132 2 0.410981 0.401462 0.389071
199 1 0.410401 0.532046 0.368558
200 2 0.414284 0.535189 0.368351
201 2 0.406148 0.534664 0.36881
220 1 0.535518 0.567329 0.382951
221 2 0.531584 0.564382 0.383866
222 2 0.535011 0.569434 0.378444
174 2 0.068882 0.698864 0.393329
295 1 0.622706 0.744211 0.378579
296 2 0.625827 0.741955 0.37539
297 2 0.619571 0.740831 0.380514
140 2 0.936779 0.058234 0.399184
141 2 0.92939 0.0595311 0.402405
139 1 0.933033 0.0615174 0.399616
3 2 0.328783 0.616512 0.42295
173 2 0.0704888 0.694704 0.400169
172 1 0.0724512 0.697596 0.396593
269 2 0.371205 0.793038 0.423488
270 2 0.374399 0.800547 0.423192
256 1 0.0118903 0.430052 0.439284
257 2 0.0123792 0.429126 0.434395
258 2 0.0138269 0.426257 0.441901
1 1 0.330589 0.612076 0.424382
2 2 0.328183 0.610543 0.428488
82 1 0.986532 0.634351 0.449977
83 2 0.991343 0.635607 0.450504
84 2 0.983684 0.638435 0.450436
268 1 0.375143 0.795852 0.424743
178 1 0.920828 0.0887322 0.480018
180 2 0.919196 0.0898219 0.484617
179 2 0.919377 0.0923117 0.476843
184 1 0.998908 0.230991 0.463386
185 2 0.999896 0.235807 0.462477
186 2 0.997667 0.228709 0.459113
76 1 0.676456 0.349774 0.469355
77 2 0.678702 0.353307 0.466622
78 2 0.675488 0.351563 0.473922
292 1 0.471585 0.676968 0.477175
293 2 0.476112 0.678709 0.478389
294 2 0.468263 0.680702 0.477343
64 1 0.791951 0.248211 0.505706
65 2 0.796424 0.250098 0.506903
66 2 0.788358 0.25129 0.507322
97 1 0.482295 0.275133 0.486255
99 2 0.478155 0.277933 0.486118
98 2 0.486318 0.278103 0.486204
42 2 0.0588739 0.439997 0.488683
40 1 0.0634942 0.438155 0.489192
41 2 0.0667388 0.44192 0.489738
109 1 0.516695 0.477498 0.513301
110 2 0.520899 0.479947 0.512148
253 1 0.199409 0.560558 0.492077
254 2 0.196703 0.560675 0.487874
255 2 0.20124 0.565116 0.493009
181 1 0.634669 0.615992 0.497152
182 2 0.632766 0.62007 0.49933
183 2 0.634383 0.616469 0.492183
61 1 0.14948 0.70865 0.491215
62 2 0.148565 0.704714 0.48827
63 2 0.14529 0.709946 0.493615
38 2 0.0206901 0.0887315 0.521406
37 1 0.0189306 0.0933087 0.522383
39 2 0.0166222 0.0932958 0.526818
111 2 0.517736 0.473837 0.516543
286 1 0.124916 0.217531 0.575031
287 2 0.126568 0.218535 0.57042
288 2 0.12661 0.213052 0.57647
283 1 0.391565 0.246899 0.589275
285 2 0.388667 0.250368 0.591413
284 2 0.395037 0.249135 0.586456
235 1 0.0648265 0.521664 0.588091
236 2 0.0626495 0.517163 0.58809
237 2 0.0637873 0.52402 0.583805
175 1 0.28516 0.927122 0.583574
176 2 0.288522 0.923751 0.582044
177 2 0.28077 0.924861 0.584353
58 1 0.139692 0.26371 0.610898
59 2 0.141373 0.263552 0.606192
60 2 0.139878 0.259126 0.612888
205 1 0.809793 0.325523 0.64579
206 2 0.804846 0.326132 0.646182
207 2 0.81173 0.324661 0.650318
190 1 0.910053 0.778146 0.663366
191 2 0.911979 0.782748 0.66303
49 1 0.977151 0.349387 0.677508
50 2 0.980511 0.350592 0.68101
51 2 0.979212 0.349882 0.67298
147 2 0.24432 0.575642 0.675418
145 1 0.240104 0.577303 0.673304
146 2 0.238771 0.581632 0.675421
187 1 0.0972419 0.691975 0.670201
188 2 0.0936391 0.690805 0.666937
189 2 0.101264 0.693617 0.667725
192 2 0.907505 0.777715 0.667646
91 1 0.990036 0.862868 0.677759
92 2 0.993814 0.865429 0.679801
93 2 0.986138 0.865921 0.677063
67 1 0.16028 0.973111 0.680458
68 2 0.156014 0.971936 0.682784
69 2 0.162966 0.976179 0.683352
208 1 0.352184 0.976196 0.689899
209 2 0.354008 0.972569 0.692817
210 2 0.354968 0.976567 0.685763
194 2 0.287483 0.363817 0.726002
112 1 0.751138 0.634279 0.712255
113 2 0.749727 0.631913 0.708083
114 2 0.751167 0.639213 0.711445
289 1 0.778699 0.839663 0.717372
290 2 0.783397 0.839856 0.715671
291 2 0.776009 0.843308 0.715254
267 2 0.118373 0.994813 0.710055
265 1 0.122772 0.992446 0.70984
266 2 0.12638 0.995732 0.708749
193 1 0.285382 0.360088 0.728585
195 2 0.288091 0.359167 0.732685
100 1 0.43815 0.946292 0.756566
101 2 0.435676 0.945371 0.752319
262 1 0.82003 0.0550454 0.779204
263 2 0.819036 0.0576071 0.775026
264 2 0.822418 0.050811 0.778034
133 1 0.255077 0.142673 0.759455
134 2 0.258912 0.145873 0.759236
135 2 0.250897 0.145158 0.760617
52 1 0.12978 0.450975 0.767369
54 2 0.128292 0.447311 0.770428
53 2 0.128454 0.455395 0.769294
211 1 0.30983 0.675574 0.768723
212 2 0.30778 0.67281 0.77235
213 2 0.307482 0.67466 0.764403
274 1 0.873158 0.815406 0.760146
275 2 0.87101 0.810892 0.760156
276 2 0.86971 0.81889 0.759158
102 2 0.435796 0.944076 0.76038
34 1 0.0543875 0.296178 0.81084
35 2 0.058047 0.29937 0.812029
36 2 0.0513005 0.298331 0.807549
136 1 0.441635 0.457523 0.813762
137 2 0.445836 0.455176 0.812404
298 1 0.749776 0.0406292 0.821276
299 2 0.749782 0.0452734 0.823129
300 2 0.748441 0.0374073 0.824859
138 2 0.440986 0.457055 0.818697
154 1 0.392546 0.493431 0.84615
156 2 0.392411 0.49801 0.844146
155 2 0.39696 0.491306 0.845152
57 2 0.0908277 0.541286 0.865407
55 1 0.0928993 0.537331 0.863156
56 2 0.097859 0.537471 0.863774
115 1 0.95836 0.613448 0.859377
116 2 0.95521 0.613875 0.855517
117 2 0.958557 0.608673 0.860846
10 1 0.566721 0.65038 0.868441
11 2 0.568737 0.654342 0.866154
12 2 0.561987 0.651403 0.869683
162 2 0.755549 0.709647 0.859776
160 1 0.760106 0.709767 0.85772
161 2 0.762452 0.713958 0.859111
22 1 0.32101 0.433624 0.880109
23 2 0.324563 0.43704 0.879271
24 2 0.316604 0.435913 0.880704
249 2 0.589238 0.514107 0.904131
247 1 0.591337 0.515821 0.899929
248 2 0.590208 0.520658 0.899355
241 1 0.446942 0.945671 0.898816
242 2 0.444553 0.949202 0.896204
243 2 0.44883 0.947675 0.902989
280 1 0.0908996 0.494574 0.926734
281 2 0.0888418 0.49048 0.924734
282 2 0.0909483 0.498244 0.923339
169 1 0.0151073 0.84038 0.93605
170 2 0.0118156 0.841469 0.932447
214 1 0.0472179 0.321356 0.941471
215 2 0.0517692 0.323206 0.942399
216 2 0.0442253 0.325023 0.939859
226 1 0.20181 0.732231 0.945236
227 2 0.203381 0.731902 0.940501
228 2 0.202365 0.727801 0.947488
171 2 0.012675 0.839589 0.940346
166 1 0.0346721 0.0655173 0.97896
167 2 0.0392802 0.0662681 0.980749
168 2 0.0324435 0.0618804 0.981568
25 1 0.634912 0.152958 0.986869
27 2 0.630595 0.155481 0.986914
26 2 0.638727 0.156186 0.986697
163 1 0.00994074 0.193473 0.976541
164 2 0.0125346 0.197447 0.974967
165 2 0.005048 0.194367 0.976029
ITEM: TIMESTEP
5000
ITEM: NUMBER OF ATOMS
300
ITEM: BOX BOUNDS pp pp pp
-1.0000000000000000e+02 1.0000000000000000e+02
-1.0000000000000000e+02 1.0000000000000000e+02
-1.0000000000000000e+02 1.0000000000000000e+02
ITEM: ATOMS id type xs ys zs
70 1 0.827661 0.252239 0.976553
71 2 0.829189 0.25124 0.981208
80 2 0.756717 0.306405 0.0132965
163 1 0.989278 0.197955 0.0627027
164 2 0.993757 0.195754 0.0623951
165 2 0.986412 0.19644 0.0588968
79 1 0.758976 0.304131 0.0171339
81 2 0.75795 0.299238 0.0170088
120 2 0.988709 0.534608 0.055277
118 1 0.992224 0.536582 0.0582351
119 2 0.992153 0.534279 0.0626726
17 2 0.450182 0.796395 0.0603156
16 1 0.453817 0.797763 0.0571671
18 2 0.452162 0.801437 0.0542065
86 2 0.310025 0.374314 0.043965
87 2 0.31367 0.379217 0.0493818
85 1 0.309624 0.376421 0.0484818
250 1 0.606982 0.37668 0.0692168
251 2 0.608648 0.372992 0.0721531
252 2 0.61086 0.378923 0.0669956
126 2 0.436659 0.459541 0.0817913
124 1 0.433236 0.462969 0.0830277
125 2 0.432668 0.466195 0.0792499
75 2 0.232304 0.64401 0.0634279
73 1 0.227426 0.642916 0.0635224
74 2 0.226362 0.640407 0.0677144
128 2 0.563884 0.866195 0.0383822
127 1 0.561062 0.866844 0.0424583
129 2 0.558024 0.870757 0.0417766
217 1 0.429567 0.188252 0.0752539
218 2 0.432571 0.192197 0.0758923
219 2 0.424902 0.189831 0.0743914
32 2 0.608861 0.357096 0.111667
33 2 0.611296 0.35849 0.103999
31 1 0.607332 0.358171 0.107029
229 1 0.653004 0.907533 0.110854
230 2 0.649203 0.909744 0.108475
231 2 0.657324 0.908952 0.108773
279 2 0.228861 0.16576 0.15733
278 2 0.234805 0.170556 0.154443
277 1 0.230006 0.170392 0.155836
88 1 0.641495 0.281686 0.133986
90 2 0.639029 0.281947 0.129643
89 2 0.645547 0.284608 0.13378
95 2 0.497188 0.840073 0.117068
94 1 0.49862 0.8371 0.120824
96 2 0.496319 0.838506 0.125034
46 1 0.248408 0.951987 0.160987
8 2 0.533288 0.613734 0.153273
7 1 0.537509 0.615841 0.154928
9 2 0.536991 0.620814 0.154955
232 1 0.328866 0.906739 0.164933
233 2 0.332886 0.90724 0.167864
234 2 0.329026 0.902304 0.162629
48 2 0.243959 0.951927 0.163268
47 2 0.250625 0.94754 0.161542
203 2 0.458827 0.922602 0.168224
204 2 0.460084 0.929477 0.172445
202 1 0.461873 0.924917 0.171443
107 2 0.263105 0.0544324 0.151724
106 1 0.260071 0.0583264 0.150929
108 2 0.260496 0.0615695 0.154711
21 2 0.972748 0.171073 0.205302
19 1 0.974717 0.174059 0.208796
20 2 0.979274 0.172407 0.210025
122 2 0.753421 0.317246 0.20842
121 1 0.750312 0.314154 0.206018
123 2 0.745588 0.315296 0.207193
45 2 0.914615 0.356737 0.221238
225 2 0.129165 0.62236 0.219755
223 1 0.133356 0.622203 0.217032
224 2 0.133652 0.626307 0.214191
148 1 0.767187 0.808636 0.173786
149 2 0.76691 0.80379 0.174989
150 2 0.762711 0.81077 0.174426
5 2 0.562332 0.00494902 0.20909
4 1 0.563748 0.00173209 0.212646
6 2 0.566281 0.997957 0.210565
43 1 0.917194 0.360984 0.221793
44 2 0.918526 0.361511 0.226583
239 2 0.991244 0.825095 0.195553
240 2 0.996649 0.829526 0.199774
238 1 0.991807 0.828976 0.198655
143 2 0.593151 0.992289 0.265
144 2 0.585496 0.990724 0.262628
142 1 0.589164 0.994122 0.262603
153 2 0.923915 0.335352 0.258032
151 1 0.924977 0.338196 0.25406
152 2 0.92983 0.339399 0.254121
199 1 0.414261 0.590108 0.309433
201 2 0.413606 0.585264 0.310482
200 2 0.419003 0.591389 0.310367
3 2 0.461132 0.692784 0.290716
1 1 0.463741 0.688599 0.291539
2 2 0.46059 0.684799 0.292329
260 2 0.364746 0.710853 0.34697
259 1 0.36394 0.708453 0.342658
261 2 0.359167 0.706983 0.342436
173 2 0.952053 0.819844 0.317388
172 1 0.951651 0.824826 0.317533
254 2 0.154766 0.514388 0.331546
269 2 0.357676 0.701404 0.328551
270 2 0.35519 0.693629 0.328733
268 1 0.353924 0.69829 0.327442
196 1 0.677581 0.712868 0.365933
197 2 0.676098 0.71594 0.362277
174 2 0.951104 0.82659 0.312887
105 2 0.343556 0.892977 0.345137
103 1 0.342652 0.888595 0.342904
104 2 0.346965 0.886587 0.341367
253 1 0.153434 0.517219 0.335446
255 2 0.157163 0.517332 0.338775
292 1 0.463695 0.616094 0.364439
293 2 0.462487 0.613539 0.360314
294 2 0.466932 0.619719 0.363265
273 2 0.0902983 0.701116 0.40637
271 1 0.085729 0.703029 0.407049
272 2 0.0848883 0.703642 0.41194
198 2 0.680446 0.709249 0.36401
78 2 0.577895 0.353269 0.401999
77 2 0.583613 0.358499 0.404571
76 1 0.579545 0.355918 0.405906
297 2 0.510431 0.647972 0.416188
295 1 0.513465 0.647783 0.420158
296 2 0.51819 0.648484 0.41868
157 1 0.49176 0.984269 0.433944
159 2 0.492116 0.980849 0.430313
158 2 0.489189 0.988216 0.432269
179 2 0.723824 0.997491 0.444504
178 1 0.723913 0.992514 0.444971
180 2 0.722635 0.990409 0.44062
42 2 0.975261 0.335249 0.435545
41 2 0.977127 0.327603 0.437719
40 1 0.973424 0.330933 0.437278
132 2 0.536852 0.435807 0.452274
130 1 0.534451 0.43816 0.455975
131 2 0.531557 0.434898 0.458422
61 1 0.254458 0.700217 0.426752
63 2 0.255194 0.695347 0.427615
62 2 0.249555 0.70112 0.426372
37 1 0.996396 0.899483 0.411696
39 2 0.99845 0.899363 0.416254
38 2 0.999787 0.898076 0.408302
244 1 0.261036 0.182508 0.471248
245 2 0.260622 0.187217 0.472879
246 2 0.263782 0.179861 0.47448
257 2 0.132629 0.469659 0.496482
222 2 0.572001 0.638706 0.479772
220 1 0.567572 0.636532 0.478962
221 2 0.564387 0.637838 0.482587
29 2 0.499763 0.783326 0.493289
30 2 0.507801 0.784045 0.49453
28 1 0.503732 0.786312 0.492712
58 1 0.0523071 0.311393 0.463082
60 2 0.0482267 0.309559 0.465315
59 2 0.0558225 0.3123 0.466519
258 2 0.13174 0.464637 0.502859
256 1 0.131919 0.464908 0.497869
110 2 0.593772 0.467157 0.513801
109 1 0.593751 0.470945 0.510538
111 2 0.589041 0.472405 0.50971
140 2 0.809857 0.110054 0.565763
141 2 0.80249 0.106543 0.565999
139 1 0.807359 0.105764 0.56517
64 1 0.716683 0.233502 0.519742
65 2 0.716901 0.229834 0.516351
66 2 0.712499 0.233031 0.52244
186 2 0.926007 0.355223 0.593063
185 2 0.925562 0.361512 0.598251
184 1 0.928531 0.357925 0.596428
286 1 0.140688 0.432427 0.548026
287 2 0.14388 0.436237 0.548566
288 2 0.14299 0.428145 0.549196
181 1 0.707271 0.61298 0.586239
183 2 0.711792 0.611126 0.587296
182 2 0.70406 0.60922 0.585494
82 1 0.865491 0.710172 0.583373
83 2 0.86729 0.705509 0.583511
84 2 0.869277 0.713427 0.583634
51 2 0.863432 0.475132 0.58991
49 1 0.864526 0.473923 0.585184
188 2 0.240692 0.778819 0.55294
187 1 0.240485 0.77574 0.556874
189 2 0.243968 0.777062 0.56021
175 1 0.303918 0.069034 0.629504
177 2 0.299202 0.070333 0.62847
176 2 0.305244 0.0651543 0.626642
97 1 0.472995 0.253656 0.648398
99 2 0.468839 0.25629 0.649286
98 2 0.476692 0.256764 0.647102
283 1 0.528006 0.438293 0.616458
284 2 0.532653 0.439536 0.615097
285 2 0.525648 0.442333 0.618223
237 2 0.199693 0.444899 0.611538
50 2 0.860554 0.471757 0.583055
235 1 0.200094 0.441812 0.61545
236 2 0.200145 0.437079 0.61384
68 2 0.116267 0.0651511 0.615848
67 1 0.12064 0.0627647 0.616277
69 2 0.120173 0.0590036 0.619538
207 2 0.873619 0.447175 0.669434
147 2 0.22647 0.471235 0.638043
145 1 0.229406 0.467928 0.640375
146 2 0.227427 0.46679 0.644824
266 2 0.178163 0.0403585 0.693954
267 2 0.183687 0.0343822 0.694619
265 1 0.183014 0.0393368 0.694604
194 2 0.321955 0.295089 0.674439
193 1 0.317261 0.294967 0.67272
195 2 0.314735 0.298902 0.67449
205 1 0.871336 0.447155 0.673882
206 2 0.874536 0.44559 0.677391
93 2 0.0329999 0.845578 0.695365
91 1 0.0309426 0.841076 0.694658
92 2 0.0344916 0.837564 0.694913
101 2 0.579421 0.034422 0.700046
102 2 0.576537 0.0391314 0.694032
100 1 0.578514 0.0346732 0.695136
112 1 0.65158 0.592715 0.700285
113 2 0.655638 0.595436 0.701346
114 2 0.651376 0.588763 0.703341
208 1 0.447411 0.00431494 0.732724
210 2 0.451532 0.00365901 0.729969
135 2 0.34738 0.156874 0.718068
264 2 0.771571 0.147447 0.74927
262 1 0.771964 0.144344 0.745369
263 2 0.776575 0.142415 0.745231
133 1 0.351051 0.157471 0.72141
134 2 0.355017 0.15954 0.719177
34 1 0.932272 0.221332 0.73672
36 2 0.931746 0.226259 0.736051
35 2 0.936593 0.220421 0.739065
212 2 0.289501 0.863109 0.750204
213 2 0.281535 0.863757 0.748533
211 1 0.286092 0.863214 0.746548
190 1 0.918402 0.893635 0.769772
192 2 0.914464 0.891768 0.772224
191 2 0.920714 0.897005 0.772652
209 2 0.448231 0.00265786 0.73737
160 1 0.650137 0.554196 0.779534
162 2 0.652305 0.550088 0.781383
161 2 0.651989 0.555157 0.77499
22 1 0.421769 0.27865 0.774322
24 2 0.426531 0.27725 0.774923
23 2 0.418882 0.274591 0.773878
10 1 0.710784 0.561941 0.780716
11 2 0.707894 0.563261 0.784577
12 2 0.712288 0.566041 0.778281
274 1 0.924999 0.818467 0.81785
276 2 0.920477 0.820596 0.817713
275 2 0.925005 0.814784 0.821231
290 2 0.726626 0.848481 0.846167
289 1 0.721933 0.850148 0.846611
291 2 0.721151 0.853823 0.843312
282 2 0.0880271 0.395618 0.8424
280 1 0.0855146 0.396536 0.846624
281 2 0.081369 0.393743 0.846738
52 1 0.164032 0.523234 0.893259
53 2 0.161917 0.518758 0.893963
54 2 0.165859 0.523501 0.888612
170 2 0.966731 0.846691 0.837234
169 1 0.967852 0.848091 0.841901
171 2 0.96769 0.84411 0.844921
215 2 0.0362031 0.433659 0.896764
214 1 0.0344316 0.430187 0.893632
216 2 0.0298655 0.428784 0.89511
136 1 0.528229 0.459795 0.927336
138 2 0.530405 0.458197 0.923127
25 1 0.579267 0.97799 0.927503
26 2 0.575268 0.976209 0.925085
27 2 0.578579 0.977522 0.932433
137 2 0.525956 0.464165 0.926482
156 2 0.327686 0.491399 0.952681
155 2 0.33208 0.491533 0.945801
154 1 0.332243 0.492137 0.950761
241 1 0.493993 0.821605 0.941044
243 2 0.490888 0.820339 0.937334
242 2 0.494606 0.817702 0.944109
166 1 0.916586 0.90592 0.923399
168 2 0.91263 0.908186 0.925452
167 2 0.919801 0.909367 0.92173
300 2 0.567556 0.0097995 0.983125
298 1 0.571535 0.00680101 0.983544
299 2 0.5743 0.00823788 0.987455
115 1 0.00317507 0.510828 0.977566
116 2 0.000990568 0.508092 0.981136
117 2 0.00789208 0.511831 0.978887
15 2 0.123419 0.934437 0.92236
13 1 0.126781 0.932131 0.925255
14 2 0.13139 0.933251 0.923672
72 2 0.831592 0.253543 0.973752
56 2 0.0934173 0.536011 0.0291717
57 2 0.0874338 0.541499 0.0283096
55 1 0.0914909 0.539512 0.0261667
249 2 0.465081 0.57799 0.992219
247 1 0.464733 0.582967 0.992557
248 2 0.468272 0.58508 0.989726
226 1 0.311044 0.831838 0.000707019
227 2 0.312674 0.83188 0.99598
228 2 0.312351 0.82753 0.00288292
ITEM: TIMESTEP
10000
ITEM: NUMBER OF ATOMS
300
ITEM: BOX BOUNDS pp pp pp
-1.0000000000000000e+02 1.0000000000000000e+02
-1.0000000000000000e+02 1.0000000000000000e+02
-1.0000000000000000e+02 1.0000000000000000e+02
ITEM: ATOMS id type xs ys zs
107 2 0.179117 0.0654538 0.972394
106 1 0.182546 0.0689309 0.97132
108 2 0.180813 0.0734374 0.97262
136 1 0.61439 0.462539 0.0395628
138 2 0.611306 0.464792 0.0427896
137 2 0.617953 0.460103 0.0420869
32 2 0.794018 0.379155 0.021177
33 2 0.798338 0.382484 0.027253
31 1 0.798034 0.381915 0.0222948
155 2 0.266541 0.490184 0.0543794
156 2 0.273782 0.486425 0.0547293
154 1 0.271457 0.490843 0.0550119
18 2 0.607265 0.746366 0.0536648
17 2 0.604821 0.750441 0.0470251
16 1 0.608796 0.748777 0.0495611
227 2 0.421735 0.932314 0.0515128
226 1 0.419969 0.931126 0.0560371
228 2 0.423005 0.927786 0.0581874
115 1 0.0481814 0.408299 0.0959568
116 2 0.047805 0.413283 0.0960919
117 2 0.0513161 0.406766 0.0995381
250 1 0.76518 0.46919 0.0802994
252 2 0.761477 0.466945 0.0778003
251 2 0.765924 0.473764 0.0784224
120 2 0.83112 0.573678 0.0990142
118 1 0.826809 0.576141 0.0984254
119 2 0.827709 0.581056 0.0982453
248 2 0.338981 0.654278 0.0846681
249 2 0.335523 0.647203 0.0868237
247 1 0.339259 0.649304 0.0842483
231 2 0.63245 0.797067 0.0939656
299 2 0.333991 0.968565 0.0906047
300 2 0.333144 0.963831 0.0840061
298 1 0.336401 0.965646 0.0873374
124 1 0.458289 0.379489 0.107084
125 2 0.456417 0.382599 0.110523
126 2 0.45874 0.374912 0.109046
7 1 0.556227 0.66073 0.0941932
9 2 0.553644 0.656488 0.0936146
8 2 0.560826 0.659668 0.0958433
149 2 0.610906 0.710429 0.102139
148 1 0.613751 0.712311 0.105794
95 2 0.334343 0.749772 0.101624
94 1 0.337516 0.747848 0.098273
96 2 0.339348 0.751518 0.0954131
230 2 0.637302 0.800306 0.0882529
229 1 0.632691 0.798633 0.0892232
165 2 0.965675 0.205256 0.148385
163 1 0.96923 0.201749 0.148129
164 2 0.96818 0.198074 0.151353
150 2 0.612393 0.710302 0.110166
238 1 0.952022 0.871657 0.112469
240 2 0.95646 0.87296 0.114368
239 2 0.950169 0.875458 0.109801
90 2 0.737035 0.327263 0.176496
89 2 0.743174 0.327769 0.181856
88 1 0.738787 0.329732 0.180476
151 1 0.879574 0.400865 0.126968
152 2 0.880578 0.405714 0.126271
153 2 0.87516 0.399762 0.124893
56 2 0.0908293 0.536725 0.190263
55 1 0.0898859 0.541536 0.189283
57 2 0.0853748 0.541953 0.187167
47 2 0.338271 0.798233 0.184493
48 2 0.333865 0.80227 0.17893
46 1 0.334331 0.797964 0.181427
253 1 0.108286 0.473719 0.179288
254 2 0.108652 0.470459 0.175514
3 2 0.598114 0.769159 0.157984
1 1 0.596183 0.764695 0.159141
2 2 0.594205 0.762622 0.155043
203 2 0.321358 0.812182 0.201359
204 2 0.323097 0.807475 0.194919
202 1 0.322319 0.81217 0.196453
234 2 0.253177 0.904758 0.194136
232 1 0.25774 0.903088 0.195316
233 2 0.260643 0.903156 0.191246
279 2 0.160664 0.103607 0.232727
278 2 0.168323 0.106431 0.232532
277 1 0.165279 0.103022 0.234561
255 2 0.105996 0.471536 0.18316
121 1 0.749033 0.337466 0.28392
123 2 0.744846 0.340089 0.284687
122 2 0.752934 0.339968 0.285797
45 2 0.794771 0.504269 0.27949
43 1 0.797802 0.507687 0.277456
44 2 0.797517 0.511937 0.280075
294 2 0.454691 0.5548 0.246662
201 2 0.416349 0.644707 0.247286
199 1 0.418717 0.647184 0.250928
200 2 0.418818 0.652061 0.249833
174 2 0.829356 0.955346 0.236065
172 1 0.831658 0.951522 0.238317
173 2 0.829692 0.947214 0.236713
5 2 0.532257 0.085875 0.299586
4 1 0.536219 0.0838786 0.301892
6 2 0.5373 0.0794573 0.299821
20 2 0.00756638 0.223348 0.288073
19 1 0.00360761 0.2231 0.291117
21 2 0.999437 0.222654 0.288395
293 2 0.454512 0.559162 0.253561
292 1 0.456158 0.554944 0.25144
144 2 0.645546 0.093855 0.330128
143 2 0.653386 0.0933429 0.332348
142 1 0.648729 0.0941681 0.33397
260 2 0.380362 0.653654 0.324082
259 1 0.385197 0.652491 0.323558
270 2 0.363762 0.667068 0.322406
261 2 0.387623 0.656342 0.321488
38 2 0.975264 0.706243 0.296433
37 1 0.974261 0.706237 0.301331
39 2 0.978458 0.70532 0.30389
60 2 0.984101 0.361478 0.307701
77 2 0.487769 0.361136 0.341113
76 1 0.482834 0.361706 0.341681
78 2 0.481833 0.362936 0.346423
58 1 0.98392 0.365799 0.310211
59 2 0.982038 0.364998 0.314773
224 2 0.122724 0.640038 0.379037
225 2 0.129564 0.638749 0.383306
223 1 0.127711 0.639784 0.378778
269 2 0.370782 0.669715 0.319186
268 1 0.36804 0.665667 0.32023
61 1 0.354747 0.697899 0.382984
62 2 0.359494 0.698943 0.384154
63 2 0.353479 0.700351 0.378815
104 2 0.500391 0.730037 0.388158
197 2 0.531556 0.769371 0.379418
196 1 0.529298 0.769017 0.383865
198 2 0.531148 0.765103 0.386367
105 2 0.502388 0.722785 0.384982
103 1 0.499278 0.725163 0.388092
41 2 0.880428 0.212499 0.390845
40 1 0.877364 0.213604 0.387052
42 2 0.87707 0.218569 0.386539
179 2 0.526578 0.900069 0.417365
178 1 0.528254 0.898702 0.412858
180 2 0.526085 0.901524 0.409346
296 2 0.397871 0.576731 0.439843
297 2 0.390371 0.575543 0.436842
295 1 0.394326 0.578602 0.436854
257 2 0.267193 0.541492 0.474711
256 1 0.263277 0.541162 0.477802
258 2 0.262824 0.545424 0.480378
273 2 0.233741 0.773898 0.49842
271 1 0.233706 0.771936 0.503018
189 2 0.385435 0.857339 0.44788
187 1 0.383487 0.859746 0.443954
188 2 0.386952 0.862741 0.441947
132 2 0.614527 0.459278 0.491229
130 1 0.60963 0.46021 0.491619
131 2 0.607101 0.455897 0.49154
51 2 0.751389 0.596776 0.488749
49 1 0.751073 0.597848 0.493622
50 2 0.754648 0.601124 0.494843
272 2 0.235534 0.775268 0.506267
159 2 0.556262 0.988957 0.529016
157 1 0.554082 0.992496 0.526236
158 2 0.551378 0.995498 0.529182
68 2 0.0909863 0.142849 0.498499
69 2 0.0969172 0.138014 0.501347
67 1 0.0956884 0.142722 0.500194
246 2 0.38059 0.236543 0.55154
244 1 0.382281 0.237436 0.55616
245 2 0.386864 0.239419 0.555902
64 1 0.640952 0.217798 0.533547
65 2 0.642624 0.219689 0.529231
66 2 0.641833 0.221048 0.537243
111 2 0.711633 0.482865 0.541724
110 2 0.709491 0.476001 0.537856
109 1 0.713257 0.478435 0.540069
237 2 0.232128 0.265301 0.543436
235 1 0.231218 0.260749 0.545293
236 2 0.228197 0.258255 0.542186
221 2 0.615012 0.680597 0.599087
222 2 0.608574 0.676179 0.596698
288 2 0.135865 0.609239 0.600948
286 1 0.132754 0.609834 0.604816
287 2 0.131248 0.605354 0.606448
220 1 0.610112 0.679839 0.599737
195 2 0.346823 0.226665 0.61956
194 2 0.346216 0.233956 0.615934
193 1 0.349359 0.230289 0.617229
284 2 0.66908 0.630442 0.643971
29 2 0.413501 0.70528 0.638187
30 2 0.416675 0.69889 0.642156
28 1 0.417602 0.703483 0.640412
102 2 0.720908 0.119322 0.63332
100 1 0.71842 0.12351 0.634446
101 2 0.721037 0.127474 0.632883
176 2 0.325645 0.211719 0.671622
177 2 0.318732 0.213842 0.675414
175 1 0.322327 0.210379 0.675114
285 2 0.661485 0.633382 0.643392
283 1 0.664242 0.629219 0.643661
181 1 0.780164 0.608832 0.675289
183 2 0.777927 0.610393 0.679479
182 2 0.779022 0.611932 0.671536
140 2 0.682136 0.149214 0.722201
139 1 0.681326 0.148508 0.727084
135 2 0.445442 0.16748 0.68255
133 1 0.446656 0.172327 0.682716
134 2 0.451475 0.172796 0.683966
22 1 0.520748 0.16216 0.679827
23 2 0.520886 0.157162 0.67986
24 2 0.516102 0.163706 0.680842
34 1 0.810632 0.146561 0.663009
36 2 0.809207 0.150923 0.664993
35 2 0.815566 0.146629 0.662203
147 2 0.320735 0.456354 0.702189
145 1 0.322097 0.460415 0.704768
146 2 0.323767 0.459044 0.709277
11 2 0.822163 0.520218 0.642185
10 1 0.818951 0.524043 0.64195
12 2 0.814427 0.522343 0.64067
205 1 0.93371 0.568241 0.701766
206 2 0.935221 0.569468 0.697161
112 1 0.552673 0.551208 0.689275
113 2 0.553383 0.546469 0.690704
114 2 0.553478 0.551604 0.684356
83 2 0.74061 0.784354 0.715574
82 1 0.745347 0.785667 0.716488
84 2 0.748192 0.781564 0.716759
266 2 0.226751 0.0995231 0.730993
265 1 0.227725 0.0946274 0.731283
267 2 0.230756 0.0937587 0.735163
141 2 0.677023 0.146041 0.72772
264 2 0.724239 0.236384 0.708355
262 1 0.724496 0.233353 0.712324
263 2 0.723057 0.23584 0.716416
186 2 0.856432 0.480572 0.726843
185 2 0.855322 0.485322 0.733391
184 1 0.857948 0.484726 0.729178
207 2 0.928779 0.568973 0.702153
93 2 0.0766082 0.81743 0.713145
91 1 0.0722433 0.819385 0.711688
92 2 0.0704805 0.816803 0.707786
212 2 0.266922 0.0512108 0.723186
213 2 0.261699 0.0531263 0.729162
211 1 0.262302 0.0504905 0.724956
161 2 0.576243 0.349229 0.747774
209 2 0.540065 0.0323708 0.779756
210 2 0.547494 0.0323588 0.776368
208 1 0.542582 0.0322833 0.775437
98 2 0.466673 0.190821 0.802818
97 1 0.465461 0.19386 0.799037
99 2 0.469072 0.193742 0.795581
282 2 0.0803199 0.293587 0.767361
280 1 0.0801377 0.298458 0.76625
281 2 0.0787724 0.301043 0.770306
160 1 0.57651 0.348919 0.752757
162 2 0.578913 0.344725 0.754039
170 2 0.985438 0.921421 0.755057
171 2 0.986653 0.919884 0.762983
169 1 0.986152 0.917823 0.758455
15 2 0.216682 0.875995 0.75852
13 1 0.219553 0.875188 0.762534
14 2 0.224354 0.875865 0.761312
192 2 0.927925 0.0139549 0.852989
190 1 0.9313 0.0145795 0.856625
191 2 0.929233 0.0134397 0.861033
216 2 0.0211572 0.537301 0.851071
214 1 0.0210348 0.538626 0.846251
215 2 0.0252078 0.541131 0.845105
166 1 0.798361 0.747714 0.867637
167 2 0.801433 0.744776 0.865005
274 1 0.907101 0.752701 0.884499
275 2 0.906492 0.756739 0.887384
276 2 0.903397 0.749457 0.885368
70 1 0.95722 0.130289 0.856459
71 2 0.955282 0.12792 0.860413
72 2 0.962044 0.129066 0.855983
168 2 0.798756 0.746609 0.872498
86 2 0.324617 0.499218 0.8911
87 2 0.330266 0.493651 0.889162
85 1 0.328959 0.497157 0.892478
129 2 0.459058 0.802937 0.916585
128 2 0.452674 0.804253 0.911667
127 1 0.455843 0.800799 0.913409
26 2 0.577198 0.808978 0.9295
25 1 0.581117 0.810596 0.926851
27 2 0.57953 0.812435 0.92248
81 2 0.795252 0.140426 0.950406
79 1 0.793035 0.141652 0.946095
80 2 0.79483 0.146033 0.944486
290 2 0.669888 0.858392 0.975619
289 1 0.665384 0.860561 0.97556
291 2 0.665132 0.863774 0.971736
217 1 0.390681 0.193095 0.953969
218 2 0.39347 0.197106 0.955035
219 2 0.386078 0.19456 0.952679
52 1 0.190219 0.592253 0.0179697
53 2 0.190024 0.594545 0.0135301
54 2 0.188552 0.595355 0.0215203
75 2 0.252648 0.567276 0.952252
73 1 0.255589 0.570938 0.950536
74 2 0.252838 0.574205 0.947937