LAMMPS data file via write_data, version 22 Dec 2022, timestep = 1000000

300 atoms
2 atom types
200 bonds
1 bond types
100 angles
1 angle types

-100 100 xlo xhi
-100 100 ylo yhi
-100 100 zlo zhi

Masses

1 15.9994
2 1.008

Atoms # full

218 73 2 0.4238 60.83663364984696 -62.31028866265792 -95.50812436445756 0 7 -4
217 73 1 -0.8476 60.09796503642809 -61.72975123515762 -95.16556349543518 0 7 -4
88 30 1 -0.8476 59.7200778762295 -60.94885453896944 -92.13849765631835 16 3 5
90 30 2 0.4238 60.54852634934459 -60.53119840983944 -91.76532575290828 16 3 5
89 30 2 0.4238 59.89114230521318 -61.247308239062 -93.0774792504836 16 3 5
219 73 2 0.4238 59.33922527167467 -61.73665357242216 -95.81694128462856 0 7 -4
263 88 2 0.4238 72.31318251893263 -45.913216687015904 -92.39266026925529 5 -2 -9
262 88 1 -0.8476 71.35078998266518 -45.66956469078465 -92.27251342751138 5 -2 -9
264 88 2 0.4238 70.77687643373397 -46.456232033336136 -92.50007745781856 5 -2 -9
187 63 1 -0.8476 89.51091778904895 -46.75594123948701 -96.35580906369898 1 -7 -4
189 63 2 0.4238 89.64886742973518 -45.947347476233176 -95.78383789618321 1 -7 -4
188 63 2 0.4238 89.57325469415402 -47.57858271454919 -95.79064104446736 1 -7 -4
25 9 1 -0.8476 89.52005235023167 -47.40160177840286 -99.06110219382117 -3 -19 -6
26 9 2 0.4238 90.3291634924829 -46.81785561162513 -98.99306175361491 -3 -19 -6
241 81 1 -0.8476 77.09583957362614 -29.5093025221996 99.42457044402266 8 4 -2
243 81 2 0.4238 77.49777145139312 -28.594492691674404 99.46425981540618 8 4 -2
3 1 2 0.4238 77.37312201461549 -30.2334265522446 95.75939070103608 -4 5 4
1 1 1 -0.8476 77.98750075627116 -30.58977295605089 96.46335455230452 -4 5 4
2 1 2 0.4238 77.56922292479253 -30.468060367294616 97.36351319601852 -4 5 4
74 25 2 0.4238 -1.9879521686007482 19.345773151752113 -95.19340113934825 3 -1 -10
146 49 2 0.4238 -38.95513573165459 74.32949958204021 -96.78209169460737 -10 -1 6
147 49 2 0.4238 -39.188879562759205 75.88319048712923 -97.22712804311404 -10 -1 6
145 49 1 -0.8476 -38.598889587787085 75.26128204081081 -96.71220613398235 -10 -1 6
72 24 2 0.4238 36.071356122506124 -54.23126737691615 -85.35529630517571 3 -6 9
71 24 2 0.4238 34.921433416506005 -54.2121644907071 -84.19601119755825 3 -6 9
70 24 1 -0.8476 35.73236901148424 -53.74581263375209 -84.5494244321844 3 -6 9
242 81 2 0.4238 76.44001179850692 -29.617927304147923 -99.82836249856985 8 4 -1
73 25 1 -0.8476 -1.8040608280056902 19.015224595061603 -94.26769563159661 3 -1 -10
75 25 2 0.4238 -0.9676167292855361 19.440462275369907 -93.92193862268905 3 -1 -10
225 75 2 0.4238 89.68855352114412 41.5701490136469 -87.18227790851383 0 -3 -8
223 75 1 -0.8476 90.42067142212208 42.09549278008274 -87.61591025537638 0 -3 -8
224 75 2 0.4238 91.30668745018583 41.75506937578007 -87.30110886291119 0 -3 -8
229 77 1 -0.8476 -87.38687145810452 -54.22672495256695 -72.49732622568278 -11 -14 16
231 77 2 0.4238 -87.79919717439066 -54.598243738237976 -71.66547602075049 -11 -14 16
230 77 2 0.4238 -87.30050038153001 -54.95282259776093 -73.17949142592661 -11 -14 16
216 72 2 0.4238 81.30565820939223 50.30796285598362 -81.22986783570721 -7 -1 10
176 59 2 0.4238 79.31571916090138 52.5253366408682 -84.25372969714046 6 4 1
177 59 2 0.4238 80.60767815938105 52.08056444027092 -83.3594903623504 6 4 1
175 59 1 -0.8476 79.96921892191746 52.82411422918922 -83.55826354238368 6 4 1
215 72 2 0.4238 82.68691899687627 50.85604146156737 -81.90689358377674 -7 -1 10
214 72 1 -0.8476 81.69230304836059 50.81331427134082 -82.00131380124226 -7 -1 10
184 62 1 -0.8476 8.871177303901266 92.65444726857828 -82.0023077415042 0 12 4
185 62 2 0.4238 9.80789677131496 92.77077350824815 -82.33251198181749 0 12 4
186 62 2 0.4238 8.281646989276688 93.3445033018122 -82.42218264085878 0 12 4
76 26 1 -0.8476 75.69140454776775 -74.82437582329662 -79.36830485789042 1 -10 -5
77 26 2 0.4238 75.73063908535892 -75.6903036988156 -78.86967388128252 1 -10 -5
78 26 2 0.4238 75.38552842433641 -74.99289179841372 -80.3053479995056 1 -10 -5
85 29 1 -0.8476 -34.18038492185406 -70.06891668231566 -85.02535748339398 4 13 16
87 29 2 0.4238 -34.998560464125966 -69.68783650100679 -84.59480320938955 4 13 16
86 29 2 0.4238 -33.47210246959969 -70.20544877067105 -84.33274953109414 4 13 16
278 93 2 0.4238 21.66349042332058 -60.28452020871202 -81.72585079804033 0 3 7
279 93 2 0.4238 21.051635918153035 -61.10778059564309 -80.45521792785625 0 3 7
277 93 1 -0.8476 20.835142943390892 -60.68700449881799 -81.33617137709616 0 3 7
156 52 2 0.4238 -41.93382502658823 11.492683196835719 -82.13480511671258 0 -3 8
154 52 1 -0.8476 -41.102483138584525 11.910753488770125 -81.7685836795596 0 -3 8
155 52 2 0.4238 -41.26632565089203 12.210549176021336 -80.8287364861903 0 -3 8
61 21 1 -0.8476 -93.74575082997336 50.837932546569625 -75.54745552549166 8 2 9
63 21 2 0.4238 -93.70927357099386 51.33758563299267 -76.41291553854495 8 2 9
62 21 2 0.4238 -94.68875815998048 50.814684750770134 -75.21549218346537 8 2 9
247 83 1 -0.8476 62.628780972235624 55.3029609464593 -78.04557126871448 -6 16 -4
248 83 2 0.4238 63.164020165152905 54.45997420726403 -77.99148701286657 -6 16 -4
249 83 2 0.4238 63.09053363426401 56.024651143037076 -77.52985190866093 -6 16 -4
206 69 2 0.4238 66.63112470534203 18.24990732972032 -79.00171990138789 5 8 -4
207 69 2 0.4238 66.6422600442793 18.65762985532016 -77.42049722227404 5 8 -4
205 69 1 -0.8476 67.18579336379891 18.280104646190477 -78.17019600508604 5 8 -4
183 61 2 0.4238 9.469569029692016 96.65586685885548 -68.44975339725168 -9 0 4
51 17 2 0.4238 49.16501939297796 96.26564858818277 -72.29321450369618 1 0 -10
49 17 1 -0.8476 48.57161490167625 97.00233816948368 -71.9688918772676 1 0 -10
50 17 2 0.4238 48.39302716420498 97.64061582786488 -72.71770462683071 1 0 -10
257 86 2 0.4238 45.209801769375915 -75.17745180853639 -61.20926963727197 -12 -17 8
256 86 1 -0.8476 46.02401309405847 -75.46728425269929 -61.71232626160563 -12 -17 8
258 86 2 0.4238 46.842767476564426 -75.17714085350005 -61.216888698969626 -12 -17 8
150 50 2 0.4238 -78.84551929426759 -52.278445608728646 -69.91306646066283 6 4 -4
148 50 1 -0.8476 -78.79723455651312 -52.660967024840005 -70.83575202183613 6 4 -4
149 50 2 0.4238 -78.93783473362289 -53.650164422737696 -70.79425817770019 6 4 -4
181 61 1 -0.8476 9.92216435487934 97.50993842988073 -68.19338730985105 -9 0 4
182 61 2 0.4238 9.985656094026206 97.5674930186133 -67.19706304835391 -9 0 4
255 85 2 0.4238 -98.76308166351372 -12.124008936008916 -65.66677095599613 4 -4 5
253 85 1 -0.8476 -99.26006598844681 -11.7339302521244 -64.89162625518729 4 -4 5
254 85 2 0.4238 -98.74404290633089 -10.962708901894157 -64.51888220426339 4 -4 5
11 4 2 0.4238 53.238693084785375 69.44824373460014 -56.445510819932636 4 2 2
10 4 1 -0.8476 53.75040156737625 69.19377383165224 -55.62489894138057 4 2 2
12 4 2 0.4238 54.73030793112686 69.21466900189094 -55.823279135903974 4 2 2
297 99 2 0.4238 -25.074195283280346 -96.39262088647678 -56.94315124259043 3 0 -3
296 99 2 0.4238 -25.366440093832473 -95.71235054442135 -58.39865048006318 3 0 -3
295 99 1 -0.8476 -24.66533690595906 -95.89821347677527 -57.710225769744284 3 0 -3
42 14 2 0.4238 -8.934928600275216 -96.73733856435258 -53.93706093249364 0 -10 -16
40 14 1 -0.8476 -8.503873318798682 -96.55596335425722 -53.05315191354313 0 -10 -16
261 87 2 0.4238 97.93472303073672 35.14174632807595 -52.856256356011286 2 -17 -4
260 87 2 0.4238 99.1949870653061 35.62526462986325 -51.93724912837071 2 -17 -4
259 87 1 -0.8476 98.58269319538002 35.88377729904094 -52.68442630277989 2 -17 -4
41 14 2 0.4238 -7.5273779813031725 -96.76398768329122 -53.109582004506045 0 -10 -16
226 76 1 -0.8476 -25.956382071449365 -75.60946338790538 -51.35276251495302 -10 4 6
228 76 2 0.4238 -26.116719565866727 -76.5945025973575 -51.28941039593028 -10 4 6
227 76 2 0.4238 -25.122093269123955 -75.44063569301038 -51.87761529635712 -10 4 6
246 82 2 0.4238 -37.32572451812178 3.443200158794242 -50.96231491755057 16 11 1
244 82 1 -0.8476 -36.73159238433041 3.8551363228343045 -50.271417846958954 16 11 1
190 64 1 -0.8476 38.434995611533274 46.1738265530616 -50.85757672467225 -2 -2 7
192 64 2 0.4238 38.34025512238526 47.066927218714326 -51.29735767101755 -2 -2 7
191 64 2 0.4238 37.601168288570136 45.96349786473768 -50.34715504539205 -2 -2 7
179 60 2 0.4238 85.16962912236939 74.62367668849143 -50.7288354207446 -19 5 -2
180 60 2 0.4238 83.80556176501398 74.3081861704569 -51.56932258369522 -19 5 -2
178 60 1 -0.8476 84.76161989581816 74.59239956583237 -51.641280014102826 -19 5 -2
157 53 1 -0.8476 91.83320361751032 -50.542464657090804 -45.14796460250915 -6 7 -17
158 53 2 0.4238 92.43591790506885 -50.90009734424103 -45.861330990172846 -6 7 -17
159 53 2 0.4238 91.83754244147234 -51.16468193868823 -44.36509441881466 -6 7 -17
135 45 2 0.4238 -47.50008374911961 -19.55591609812502 -37.193766873881216 14 7 -1
133 45 1 -0.8476 -47.976631602587226 -20.430062125307067 -37.1000696365893 14 7 -1
134 45 2 0.4238 -47.38512461609806 -21.168530328526412 -37.42378176331136 14 7 -1
245 82 2 0.4238 -36.42350695222693 3.1495841154940645 -49.63322256686865 16 11 1
120 40 2 0.4238 -8.262562228913946 -65.0415608543285 -35.48235790793483 -9 10 -5
118 40 1 -0.8476 -9.172400385570015 -64.64789697770627 -35.35110893384694 -9 10 -5
119 40 2 0.4238 -9.776219342828007 -65.33274590907784 -34.94319849057449 -9 10 -5
54 18 2 0.4238 -42.96988280008609 71.58267679034817 -35.37664302468149 1 5 4
52 18 1 -0.8476 -42.16525600559399 72.17582238796659 -35.3490133333005 1 5 4
53 18 2 0.4238 -42.403456685984466 73.07769115110028 -35.70942838463644 1 5 4
38 13 2 0.4238 40.96569360300985 -36.96324347517049 -29.33547249491655 -2 -2 2
37 13 1 -0.8476 41.553790075012884 -37.48494687611207 -29.95351623601561 -2 -2 2
39 13 2 0.4238 41.698320182997826 -36.96417529475749 -30.794905735918654 -2 -2 2
122 41 2 0.4238 15.218424559369232 21.600699706192923 -36.00337191119584 -2 -1 -5
121 41 1 -0.8476 14.342689951722246 22.067645530075747 -36.126127317661556 -2 -1 -5
123 41 2 0.4238 13.77582959580524 21.931954672791566 -35.31356425837626 -2 -1 -5
33 11 2 0.4238 93.52098862745112 57.54815174292904 -31.534706188206222 1 1 9
32 11 2 0.4238 93.10393953902911 59.10543394677322 -31.79467474249335 1 1 9
31 11 1 -0.8476 93.4472779251472 58.454178424715266 -31.117926317071067 1 1 9
252 84 2 0.4238 -19.760620428515363 80.73237978836738 -28.62406508545589 20 2 -8
250 84 1 -0.8476 -20.118049252001896 80.56588397872584 -27.70508520016715 20 2 -8
251 84 2 0.4238 -21.108766070351905 80.43788449338103 -27.750907143180775 20 2 -8
48 16 2 0.4238 62.529868850756365 -62.568245651483124 -25.191490423058514 5 -16 -6
170 57 2 0.4238 -70.70876580183317 -16.85080661199086 -27.66714519990217 5 8 -3
169 57 1 -0.8476 -70.95456980141567 -16.231919579929386 -28.413206065943587 5 8 -3
171 57 2 0.4238 -71.94683214397728 -16.23701529774169 -28.53730068044373 5 8 -3
268 90 1 -0.8476 75.74506700190533 91.11462831206974 -19.254137821270795 -4 2 3
270 90 2 0.4238 75.55031575197509 91.06114088151989 -18.274741818938427 -4 2 3
298 100 1 -0.8476 63.035776425721316 -71.19717465568802 -28.485640821686836 -5 -3 6
300 100 2 0.4238 62.05080665483062 -71.28860136887197 -28.339051895221232 -5 -3 6
299 100 2 0.4238 63.20800843315551 -70.46669165544925 -29.14650290275112 -5 -3 6
46 16 1 -0.8476 63.52783262341947 -62.51597691285402 -25.154880883318956 5 -16 -6
47 16 2 0.4238 63.87853766223375 -63.24594270893464 -24.568204677346685 5 -16 -6
45 15 2 0.4238 81.95656224439428 -50.730510795893714 -16.081856770041465 5 5 -5
43 15 1 -0.8476 82.65512851352999 -51.09285664290603 -15.464834700908611 5 5 -5
44 15 2 0.4238 82.45604106281114 -52.05169628283855 -15.26230177148415 5 5 -5
200 67 2 0.4238 66.04201536128092 0.309112663664092 -19.936508796305077 10 -4 2
199 67 1 -0.8476 65.78732737652442 0.7377626086424315 -19.069672109949824 10 -4 2
201 67 2 0.4238 66.60985034243014 1.068725869153462 -18.60712616490009 10 -4 2
17 6 2 0.4238 -38.973352104428656 27.224746917164914 -14.104905643662272 3 14 -7
16 6 1 -0.8476 -39.083705614877466 27.07231875214316 -13.122771014249475 3 14 -7
18 6 2 0.4238 -38.634030640457574 27.809540410903026 -12.618446687748929 3 14 -7
125 42 2 0.4238 50.43770210676025 62.133774915847155 -23.310546370467023 8 -1 -3
124 42 1 -0.8476 50.97200319572029 61.28986826104925 -23.359022426711068 8 -1 -3
126 42 2 0.4238 51.94667597261607 61.51294082067612 -23.375309493857344 8 -1 -3
269 90 2 0.4238 75.35066253707313 90.32033836760621 -19.716274266412128 -4 2 3
82 28 1 -0.8476 26.746617460483414 97.31128577594818 -19.219418095070687 -12 -6 15
84 28 2 0.4238 25.801664653746656 97.2852199649921 -18.8932486059483 -12 -6 15
83 28 2 0.4238 26.78311095778594 97.78847350722083 -20.097462524193485 -12 -6 15
55 19 1 -0.8476 -36.51377801568425 -66.68513173584996 -10.297732647335799 5 0 2
56 19 2 0.4238 -36.904861245694455 -66.13088921853716 -9.562973580752914 5 0 2
57 19 2 0.4238 -36.831375442794254 -66.33985418410286 -11.180861934288464 5 0 2
213 71 2 0.4238 -46.83464401879179 -91.15611352464751 -6.856817170968851 -14 -4 7
211 71 1 -0.8476 -47.064533459862616 -91.50832480203883 -5.949548022489751 -14 -4 7
212 71 2 0.4238 -48.05552998303332 -91.62093318528304 -5.876967505351202 -14 -4 7
293 98 2 0.4238 2.66969298451529 -2.966476535395629 -8.451225134664773 0 -5 1
292 98 1 -0.8476 2.7908600211809436 -2.390136183026335 -9.259419673349411 0 -5 1
294 98 2 0.4238 2.712445015362924 -2.9510567101627183 -10.083595485939666 0 -5 1
8 3 2 0.4238 21.819094522689774 86.20400727964319 0.4852950868901129 -3 0 3
7 3 1 -0.8476 21.460924293136028 87.08345757722451 0.17167216434977117 -3 0 3
9 3 2 0.4238 22.18900805143766 87.76843787028523 0.19813897336691486 -3 0 3
220 74 1 -0.8476 65.09426459183935 -74.52850685800611 -3.496470156891303 -15 7 12
221 74 2 0.4238 65.94094772814906 -74.0625097772085 -3.7533381049377152 -15 7 12
222 74 2 0.4238 65.11538565422255 -75.46905572651606 -3.8354997633175643 -15 7 12
34 12 1 -0.8476 -43.58096475906691 -36.15004806435835 8.54229829990576 2 -4 10
35 12 2 0.4238 -44.51569540194303 -36.463212845171306 8.710424964178081 2 -4 10
36 12 2 0.4238 -43.579764302898695 -35.158350868760536 8.413704118820322 2 -4 10
96 32 2 0.4238 12.73158247107887 -73.13997624785584 5.571660089979383 -15 -3 6
94 32 1 -0.8476 12.250844899353877 -73.88083085434732 6.040734969549979 -15 -3 6
95 32 2 0.4238 12.839223963315254 -74.68853177276046 6.078649043797784 -15 -3 6
97 33 1 -0.8476 -41.83628863612196 -29.212169606376783 6.296868502454021 -1 -6 1
98 33 2 0.4238 -42.68588283110681 -29.663331113358954 6.5701184059702555 -1 -6 1
99 33 2 0.4238 -42.030258377101205 -28.542037854901906 5.5804193064481655 -1 -6 1
129 43 2 0.4238 52.67398821593304 28.150704090275728 2.9656043369317118 -10 7 -9
13 5 1 -0.8476 53.86215679641309 25.75740671577527 5.084092836574047 6 -7 -14
14 5 2 0.4238 54.24317213389779 26.35862584182045 5.786503423267355 6 -7 -14
128 43 2 0.4238 54.22489375661892 27.64119541866203 2.923960351188458 -10 7 -9
127 43 1 -0.8476 53.432252072113975 27.79712975944133 3.513372179293952 -10 7 -9
15 5 2 0.4238 53.39800440860523 26.307886633100583 4.390155144727931 6 -7 -14
203 68 2 0.4238 35.34051208547126 87.58401288865491 7.916776950605964 -16 -7 -7
204 68 2 0.4238 34.298109389764065 86.48358395864885 8.524341470198618 -16 -7 -7
202 68 1 -0.8476 35.23678067937918 86.8264458764274 8.56124685998867 -16 -7 -7
5 2 2 0.4238 67.95471461175109 -86.580706780407 27.266064849347032 -7 -14 15
4 2 1 -0.8476 67.60679952622131 -87.49374438143234 27.47894595402996 -7 -14 15
6 2 2 0.4238 66.62477855128839 -87.52789148871213 27.293272775529314 -7 -14 15
195 65 2 0.4238 -38.53932422641524 -57.96663580549473 23.906456061664127 11 -14 -4
194 65 2 0.4238 -37.87640570738559 -59.31885562640927 24.537908091572593 11 -14 -4
193 65 1 -0.8476 -38.64721360927099 -58.954854345527366 24.015040383052725 11 -14 -4
166 56 1 -0.8476 40.10989933463642 -12.436591302492694 29.70649044680309 -4 -6 7
167 56 2 0.4238 40.211646553924496 -11.46153806827716 29.509187935546212 -4 -6 7
168 56 2 0.4238 39.168654745313695 -12.623258360045801 29.98794295805224 -4 -6 7
106 36 1 -0.8476 66.63201965134134 61.73020883630606 25.872281780569576 1 -4 4
107 36 2 0.4238 67.1265047063809 61.42018537362813 25.06026050467603 1 -4 4
235 79 1 -0.8476 -63.173113158117616 -72.04236355696852 37.21546184895429 16 -10 1
236 79 2 0.4238 -63.60659151841395 -71.16158436223732 37.024861078066 16 -10 1
237 79 2 0.4238 -63.015315566799856 -72.13029381871118 38.19901096573069 16 -10 1
108 36 2 0.4238 66.30670015976058 60.93722094694917 26.38739748952371 1 -4 4
137 46 2 0.4238 -67.45907140664028 -84.92845720547493 40.526345686403545 4 4 5
138 46 2 0.4238 -65.86284189322535 -84.72086271854155 40.8013987903697 4 4 5
165 55 2 0.4238 -35.73381996994963 -25.22648648112142 41.10820378127971 11 -9 22
164 55 2 0.4238 -35.219244596112034 -24.479508533542067 42.46609978730552 11 -9 22
163 55 1 -0.8476 -35.33696176730114 -24.386132160838475 41.47744173664025 11 -9 22
161 54 2 0.4238 70.62419812191693 38.1747996493251 32.95400489223102 3 13 -2
160 54 1 -0.8476 71.2476290796218 38.119723238037366 33.733963842692106 3 13 -2
162 54 2 0.4238 71.02909693718145 38.8446619774883 34.38720171527033 3 13 -2
136 46 1 -0.8476 -66.69405825551674 -84.28878710155337 40.45153245868046 4 4 5
92 31 2 0.4238 -54.100860201164934 -38.40154757457411 42.778892871831545 1 -5 -1
91 31 1 -0.8476 -55.08758862706696 -38.42692870912067 42.93936660932656 1 -5 -1
93 31 2 0.4238 -55.464420689885756 -39.27435070491002 42.565342074671136 1 -5 -1
173 58 2 0.4238 -51.55108220497889 -37.487652789286884 42.640117048361134 -5 -2 -2
172 58 1 -0.8476 -52.45868541311678 -37.84227550615963 42.86485815619276 -5 -2 -2
174 58 2 0.4238 -52.952087434351185 -37.169778197112855 43.416501014994196 -5 -2 -2
286 96 1 -0.8476 32.72566484774192 -32.6404501577331 40.64293470459095 -8 3 5
288 96 2 0.4238 32.38978339611024 -32.63171541887061 41.58480526882867 -8 3 5
287 96 2 0.4238 32.379191611441065 -31.83742595720392 40.15805258758158 -8 3 5
115 39 1 -0.8476 -34.05700652087848 93.06224413424852 35.88829908696715 4 13 1
117 39 2 0.4238 -33.586336659393865 93.94449081722703 35.876323715815154 4 13 1
116 39 2 0.4238 -33.497437871656345 92.39252697683625 36.37653159441367 4 13 1
210 70 2 0.4238 38.139502271846496 -74.43690315196659 51.11139524944285 -6 7 -4
208 70 1 -0.8476 37.495785669996465 -75.09275935077899 50.71707162115169 -6 7 -4
209 70 2 0.4238 37.62335568074399 -75.9857348806558 51.148745810757056 -6 7 -4
285 95 2 0.4238 70.56194135190287 -18.474399460135633 53.13188574080301 3 16 6
283 95 1 -0.8476 69.9808722923583 -19.276093612195517 53.27205514759715 3 16 6
284 95 2 0.4238 70.26479780252767 -19.75211111053327 54.10440391158824 3 16 6
69 23 2 0.4238 72.31070987269145 -17.03684266748427 49.22919186824028 -14 -1 -3
67 23 1 -0.8476 73.25561491360392 -17.36284651956379 49.198741062941856 -14 -1 -3
68 23 2 0.4238 73.64688872527535 -17.167170757582866 48.29951007557486 -14 -1 -3
280 94 1 -0.8476 55.58811645905305 8.831853730905953 48.05233340465117 -10 2 -7
282 94 2 0.4238 55.70576512194888 8.383860875077188 48.938609593366216 -10 2 -7
281 94 2 0.4238 54.81760698863186 9.467509835716061 48.09984200881872 -10 2 -7
66 22 2 0.4238 56.01734288177208 6.99101906702785 45.52868181140425 -7 -5 -3
64 22 1 -0.8476 56.393575583987335 7.888296498284445 45.297690397032156 -7 -5 -3
65 22 2 0.4238 56.113016663993456 8.555154276106181 45.98806038282216 -7 -5 -3
130 44 1 -0.8476 72.83328863012588 45.584763715217356 47.69955254950938 -5 -11 -5
131 44 2 0.4238 73.44249298549131 46.22844246249494 47.23635643613472 -5 -11 -5
132 44 2 0.4238 73.01451510744104 44.65820710666598 47.369922341767555 -5 -11 -5
139 47 1 -0.8476 78.06778200466219 -99.52815396823063 55.435432550282115 0 0 1
140 47 2 0.4238 77.53242521178906 -98.81225284761875 55.88367296195127 0 0 1
141 47 2 0.4238 77.84994291253595 99.58637623713248 55.845930997094705 0 -1 1
29 10 2 0.4238 64.85091317015633 19.864335970424527 48.78506533736024 15 -15 7
28 10 1 -0.8476 65.37251439975262 20.602843518588685 48.357818542612364 15 -15 7
30 10 2 0.4238 64.74326888194855 21.247140412025168 47.923153362703324 15 -15 7
152 51 2 0.4238 -81.60154938795073 25.852495047534372 50.800628385616015 -1 14 1
151 51 1 -0.8476 -81.94282509502273 26.706935990760996 51.19237819473778 -1 14 1
153 51 2 0.4238 -82.88983379559144 26.58292814731364 51.4886949367729 -1 14 1
113 38 2 0.4238 -38.32887531930921 -84.3170000780894 59.5083263879377 -7 2 -1
112 38 1 -0.8476 -37.392476684286066 -84.42111693935712 59.84348270218312 -7 2 -1
114 38 2 0.4238 -36.81966706099867 -84.80397100221259 59.11867748121538 -7 2 -1
80 27 2 0.4238 -43.680803556224575 -63.689996425606054 58.00307595226816 -1 7 -12
272 91 2 0.4238 73.7216725899249 37.80557843917654 60.250040118986064 -6 -3 3
271 91 1 -0.8476 73.96757516182343 37.6142814956635 61.20027409971165 -6 -3 3
273 91 2 0.4238 74.83183432795597 37.11190563236579 61.22625468348226 -6 -3 3
79 27 1 -0.8476 -44.663507114481774 -63.57540988146801 58.148559627008886 -1 7 -12
81 27 2 0.4238 -45.16435234015234 -64.19659183138853 57.54582462146918 -1 7 -12
265 89 1 -0.8476 55.97259951411797 -48.31258513710172 67.22268598318678 10 9 -7
266 89 2 0.4238 56.80517718228424 -48.34527887448485 67.77568054617534 10 9 -7
267 89 2 0.4238 55.18809495251269 -48.57252881728343 67.7856987699226 10 9 -7
233 78 2 0.4238 56.680481892686856 95.26130778354636 68.16282491627668 -4 1 -20
234 78 2 0.4238 57.693375594131155 95.98285546210981 69.22115622909804 -4 1 -20
232 78 1 -0.8476 56.78835717349178 96.02613950958563 68.7979747716218 -4 1 -20
275 92 2 0.4238 13.428589440769459 -12.901303299877224 71.98059077217889 4 -9 -6
274 92 1 -0.8476 12.709602685970099 -12.738559072291716 72.65630477347177 4 -9 -6
276 92 2 0.4238 13.082999056390669 -12.211999785870596 73.42005941410422 4 -9 -6
197 66 2 0.4238 -3.047014081938905 2.922299230662661 70.22230315450037 11 3 -5
196 66 1 -0.8476 -3.2176214978605215 2.02383578158719 69.81775076265323 11 3 -5
20 7 2 0.4238 79.67699020403408 60.567619137638665 70.26009549868581 6 1 -3
19 7 1 -0.8476 79.41623562008147 61.53147557674566 70.31524781492146 6 1 -3
21 7 2 0.4238 80.23844250053874 62.10050372263659 70.30144113000392 6 1 -3
109 37 1 -0.8476 67.31525673374513 -91.5703234815995 78.71353670433702 -4 9 -5
111 37 2 0.4238 68.17453176084534 -91.32353475747259 79.16158214569462 -4 9 -5
110 37 2 0.4238 67.21572776689386 -91.0427372681503 77.86988052555147 -4 9 -5
240 80 2 0.4238 -55.22120098016358 -13.098307121207275 80.01480048610911 -10 4 -1
238 80 1 -0.8476 -54.924355576234426 -13.924171169414354 79.53539133854046 -10 4 -1
239 80 2 0.4238 -54.06607980991188 -13.740986246385335 79.05600529536781 -10 4 -1
198 66 2 0.4238 -2.3747317884407377 1.6786697547716163 69.40494149401681 11 3 -5
144 48 2 0.4238 54.69480866313763 -50.06032565794817 86.30885293878785 -3 -4 -4
142 48 1 -0.8476 54.251474407260524 -50.95668000690033 86.30532620018256 -3 -4 -4
143 48 2 0.4238 53.73810794487042 -51.07127695906766 85.45484211869517 -3 -4 -4
103 35 1 -0.8476 29.870923747022026 38.74320932148558 82.00175754155073 -8 -7 -1
104 35 2 0.4238 29.385318095299258 39.548557788748 81.66172364884962 -8 -7 -1
105 35 2 0.4238 30.717884533862374 39.02925339197301 82.44990599396799 -8 -7 -1
102 34 2 0.4238 -22.985760179165492 74.9872437718713 79.7489932241295 5 24 2
101 34 2 0.4238 -22.51210518045576 74.93524040456359 78.18707153172626 5 24 2
100 34 1 -0.8476 -23.297876566833295 74.88991060887783 78.80392929000729 5 24 2
291 97 2 0.4238 -91.0898205882973 82.77066278575998 83.61832635404383 -3 -6 6
289 97 1 -0.8476 -91.70079737493926 83.22514008998081 84.26652847502054 -3 -6 6
290 97 2 0.4238 -91.67882324887802 84.21244897917839 84.1092232524805 -3 -6 6
23 8 2 0.4238 -12.335915189803744 -73.9899422984349 91.01941906241977 6 8 -10
24 8 2 0.4238 -12.372495447960839 -74.6695896145534 92.50383481824763 6 8 -10
22 8 1 -0.8476 -12.583268065684766 -74.80947724541755 91.53634710268732 6 8 -10
58 20 1 -0.8476 41.90045898812763 -55.24843871641606 89.67686093606169 13 -3 -4
60 20 2 0.4238 42.14384708384083 -56.1922212246621 89.45316977302762 13 -3 -4
59 20 2 0.4238 41.1013273835156 -54.97452065966461 89.14172943111429 13 -3 -4
27 9 2 0.4238 89.13039361422236 -47.53865389493476 -98.15039065682832 -3 -19 -6

Velocities

218 0.0033479126260565505 0.0009904001263239682 -0.00925695634173747
217 0.008610588261460217 0.0032230858050770915 -0.0016951838826127605
88 0.0008116542720152589 0.0012971855739219542 0.006074084682350997
90 0.011176128119789588 -0.020961785871613223 0.00797367047919753
89 -0.01365519276002344 0.022503091254228145 -0.0032893813914740243
219 -0.006769914623045774 -0.011633684274716347 0.01638154620863013
263 -0.003606709197297891 -0.0004738406504914049 -0.002720498534044507
262 -0.003370198446874316 -0.0020207303545861414 0.002310675732324241
264 -0.002806324802657765 -0.006545936644761946 0.016533143673537087
187 -0.0039323155977990685 -0.0038469365372005627 0.0033040069810167426
189 -0.011766963120093838 -0.008118787576633004 0.011233347122046562
188 0.027119064354396816 -0.009834520613063552 -0.008833986513448874
25 -0.0017006967744118543 -0.00712179812889201 -0.0020581366348744272
26 0.014567103614528601 -0.032188007386899906 0.01979488268686218
241 -0.00024828232454463894 1.375830450662196e-05 -0.009379459143878558
243 0.004506987806430998 -0.0022911441421055536 -0.004465083996352582
3 0.003553619608735799 -0.010874251216216638 -0.013242224883830943
1 -0.0021592311957246567 -0.00031383197329124587 -0.0029064796503132677
2 0.0035360759073598787 0.040263738968479325 -0.005763906366173852
74 -0.005235901966877412 0.019657447009120158 0.0046099334622012565
146 -0.018376649107054558 0.0014099354699167047 0.008694836792034028
147 0.0049239760298519725 0.0019615558762737266 -0.0016180929872584176
145 -0.0018392674309492415 -0.0041660231764931825 -0.0012698837830117666
72 -0.009010374500388501 0.009108900732396036 -0.0008898830084719257
71 -0.0036150470300149464 0.004921559839734128 0.004530819527066807
70 0.0002671150014291209 0.0008089401704594384 0.008012181552974075
242 -0.017032767428015592 0.007110701315986688 -0.023075883523857886
73 -0.005712867372328028 0.00424636122595884 -0.0007994686572496137
75 0.002817307652976931 -0.013693749640632058 0.0006293649717010743
225 -0.005053090550830023 0.0042974704148125535 -0.01781587094283329
223 0.006591777283534602 0.005280766239515336 0.0030361013802368353
224 -0.0016817115911792622 -0.0017402502650392332 0.018726138008359233
229 0.0007693941476026674 -0.007952953398258727 0.012803722269224063
231 -0.0037683983743532776 0.010582996617792734 0.018829825594470235
230 -0.02560155967079207 -0.015799783470140584 0.017815720505174763
216 -0.0035573394742188357 0.006015119419716512 0.010216717365770435
176 -0.00866394883472109 0.0019363269713816755 0.006035608107100544
177 0.00274331902764677 0.0006063769050054631 -0.011083671848089904
175 -0.0017914966793091908 -0.00017806467777550176 0.0004889188113258534
215 0.0006405663109995821 -0.009174020123617291 0.00648682445497077
214 0.00034296252016835537 -0.002503948256771288 0.006593981086409353
184 0.0003952959569066872 0.008630276578097708 0.0036341096399170234
185 -0.005471424243982581 0.012480803093097037 -0.011656844928496293
186 -0.013657965262677974 -0.008131961058284686 -0.0041764037749068275
76 0.0019169786041883428 0.0013541423201922154 -7.912812743951894e-05
77 -0.006898910612458427 -0.001100259765775397 -0.003648441659541291
78 0.01497883275084541 0.006419616071386536 -0.005253734973348512
85 -0.006479653746428619 0.00029223983327620684 -0.0034545599489556916
87 -0.013172160082829575 -0.01560875560593132 -0.00209890528921883
86 -0.0014927260542651627 0.017262532765392444 -0.005209930345734119
278 0.0025537834588071325 0.012817460589004782 0.0005304359264584388
279 0.011026356985734256 0.0043290734738688635 -0.0008897292489746245
277 0.006591327222404777 0.004067443215513936 7.522785439724333e-05
156 0.017957677039290566 -0.015110034296268383 -0.02362809030388578
154 0.0020009696855947225 -0.0025530283742626948 -0.0017503145818484089
155 -0.020807213923440156 -0.02420452841092379 0.0011810726348053893
61 0.004095609955674494 -0.003449905582423214 0.0018025888059969282
63 -0.0029549811851781204 0.00492985042872376 0.00634360206971549
62 0.006005973838828334 -0.011045093995229025 0.006697308460194219
247 -0.006648184836076529 0.0017764767923771519 -0.0014733002842480319
248 0.01561081430794117 0.01480596573028171 -0.01873997002656107
249 -0.02512339648414113 0.003717683798903714 0.012354932601184266
206 0.004174947471580096 -0.01136621814480747 -0.003960019455537157
207 0.005916021818519203 -0.013807314202653626 -0.0033428554545400133
205 0.007080087037203208 -0.006722276344882319 -0.006066544542908398
183 0.0012548930499672237 0.003685124772748412 -0.008018647490500335
51 0.029301451263150886 0.012445030113630556 0.011587071641535522
49 0.007940667557829684 0.0005006003989777973 -0.0003650134110646263
50 -0.003753211554139086 -0.012318398348509594 -0.008500976510892393
257 -0.003347512639388662 -0.017812080425243595 0.00890945014234486
256 -0.0017210301898830545 -0.0029303842705914575 0.002968821261379715
258 -0.003367601518621632 -0.0023041460157165418 0.005323336619748889
150 0.010373441189850952 0.011600607273810726 -0.0037619054099889957
148 0.0027265324960217946 0.007449440601299244 -0.0024412238804927644
149 -0.0019692911591242834 0.008329575062654014 0.002623480114433843
181 0.003771773492432034 -0.0006655878056069414 0.0020318648936174487
182 0.005688697725973865 -0.013485342343965668 0.002649927921950159
255 -0.002110410671056757 0.0011527744243711086 -0.008551854499294622
253 0.0022781239065496456 -0.006374605394600077 -0.001950288398312706
254 9.623210379269746e-05 -0.004442103571809123 -0.0029282418091539464
11 0.006027840088288223 0.008548779100414945 -0.001968792026224891
10 -0.003081860039705028 0.003241599241833118 0.002065636827346531
12 -0.0014169722063954676 -0.010065384905077317 0.008888632200548113