#LAMMPS SPC-WATER
        
150 atoms        
100 bonds        
50 angles           
2 atom types           
1 bond types           
1 angle types
0.0   40.0   xlo xhi
0.0   40.0   ylo yhi
0.0   40.0   zlo zhi

Masses

     1  1.0079401
     2  15.999400

Atoms

           1           1           2      -0.8476        0.1000000014901161        0.1000000014901161        0.1000000014901161     
           2           1           1       0.4238        0.1000000014901161        1.1000000238418579        0.1000000014901161     
           3           1           1       0.4238        0.1000000014901161        -0.3333321809768677        0.9428094625473023     
           4           2           2      -0.8476        8.6282882325383436        0.1000000014901161        0.1000000014901161     
           5           2           1       0.4238        8.6282882325383436        1.1000000238418579        0.1000000014901161     
           6           2           1       0.4238        8.6282882325383436        -0.3333321809768677        0.9428094625473023     
           7           3           2      -0.8476        17.1565764635865710        0.1000000014901161        0.1000000014901161     
           8           3           1       0.4238        17.1565764635865710        1.1000000238418579        0.1000000014901161     
           9           3           1       0.4238        17.1565764635865710        -0.3333321809768677        0.9428094625473023     
          10           4           2      -0.8476        25.6848646946347970        0.1000000014901161        0.1000000014901161     
          11           4           1       0.4238        25.6848646946347970        1.1000000238418579        0.1000000014901161     
          12           4           1       0.4238        25.6848646946347970        -0.3333321809768677        0.9428094625473023     
          13           5           2      -0.8476        34.2131529256830260        0.1000000014901161        0.1000000014901161     
          14           5           1       0.4238        34.2131529256830260        1.1000000238418579        0.1000000014901161     
          15           5           1       0.4238        34.2131529256830260        -0.3333321809768677        0.9428094625473023     
          16           6           2      -0.8476        0.1000000014901161        8.6282882325383436        0.1000000014901161     
          17           6           1       0.4238        0.1000000014901161        9.6282882548900854        0.1000000014901161     
          18           6           1       0.4238        0.1000000014901161        8.1949560500713599        0.9428094625473023     
          19           7           2      -0.8476        8.6282882325383436        8.6282882325383436        0.1000000014901161     
          20           7           1       0.4238        8.6282882325383436        9.6282882548900854        0.1000000014901161     
          21           7           1       0.4238        8.6282882325383436        8.1949560500713599        0.9428094625473023     
          22           8           2      -0.8476        17.1565764635865710        8.6282882325383436        0.1000000014901161     
          23           8           1       0.4238        17.1565764635865710        9.6282882548900854        0.1000000014901161     
          24           8           1       0.4238        17.1565764635865710        8.1949560500713599        0.9428094625473023     
          25           9           2      -0.8476        25.6848646946347970        8.6282882325383436        0.1000000014901161     
          26           9           1       0.4238        25.6848646946347970        9.6282882548900854        0.1000000014901161     
          27           9           1       0.4238        25.6848646946347970        8.1949560500713599        0.9428094625473023     
          28           10           2      -0.8476        34.2131529256830260        8.6282882325383436        0.1000000014901161     
          29           10           1       0.4238        34.2131529256830260        9.6282882548900854        0.1000000014901161     
          30           10           1       0.4238        34.2131529256830260        8.1949560500713599        0.9428094625473023     
          31           11           2      -0.8476        0.1000000014901161        17.1565764635865710        0.1000000014901161     
          32           11           1       0.4238        0.1000000014901161        18.1565764859383130        0.1000000014901161     
          33           11           1       0.4238        0.1000000014901161        16.7232442811195870        0.9428094625473023     
          34           12           2      -0.8476        8.6282882325383436        17.1565764635865710        0.1000000014901161     
          35           12           1       0.4238        8.6282882325383436        18.1565764859383130        0.1000000014901161     
          36           12           1       0.4238        8.6282882325383436        16.7232442811195870        0.9428094625473023     
          37           13           2      -0.8476        17.1565764635865710        17.1565764635865710        0.1000000014901161     
          38           13           1       0.4238        17.1565764635865710        18.1565764859383130        0.1000000014901161     
          39           13           1       0.4238        17.1565764635865710        16.7232442811195870        0.9428094625473023     
          40           14           2      -0.8476        25.6848646946347970        17.1565764635865710        0.1000000014901161     
          41           14           1       0.4238        25.6848646946347970        18.1565764859383130        0.1000000014901161     
          42           14           1       0.4238        25.6848646946347970        16.7232442811195870        0.9428094625473023     
          43           15           2      -0.8476        34.2131529256830260        17.1565764635865710        0.1000000014901161     
          44           15           1       0.4238        34.2131529256830260        18.1565764859383130        0.1000000014901161     
          45           15           1       0.4238        34.2131529256830260        16.7232442811195870        0.9428094625473023     
          46           16           2      -0.8476        0.1000000014901161        25.6848646946347970        0.1000000014901161     
          47           16           1       0.4238        0.1000000014901161        26.6848647169865390        0.1000000014901161     
          48           16           1       0.4238        0.1000000014901161        25.2515325121678130        0.9428094625473023     
          49           17           2      -0.8476        8.6282882325383436        25.6848646946347970        0.1000000014901161     
          50           17           1       0.4238        8.6282882325383436        26.6848647169865390        0.1000000014901161     
          51           17           1       0.4238        8.6282882325383436        25.2515325121678130        0.9428094625473023     
          52           18           2      -0.8476        17.1565764635865710        25.6848646946347970        0.1000000014901161     
          53           18           1       0.4238        17.1565764635865710        26.6848647169865390        0.1000000014901161     
          54           18           1       0.4238        17.1565764635865710        25.2515325121678130        0.9428094625473023     
          55           19           2      -0.8476        25.6848646946347970        25.6848646946347970        0.1000000014901161     
          56           19           1       0.4238        25.6848646946347970        26.6848647169865390        0.1000000014901161     
          57           19           1       0.4238        25.6848646946347970        25.2515325121678130        0.9428094625473023     
          58           20           2      -0.8476        34.2131529256830260        25.6848646946347970        0.1000000014901161     
          59           20           1       0.4238        34.2131529256830260        26.6848647169865390        0.1000000014901161     
          60           20           1       0.4238        34.2131529256830260        25.2515325121678130        0.9428094625473023     
          61           21           2      -0.8476        0.1000000014901161        34.2131529256830260        0.1000000014901161     
          62           21           1       0.4238        0.1000000014901161        35.2131529480347680        0.1000000014901161     
          63           21           1       0.4238        0.1000000014901161        33.7798207432160420        0.9428094625473023     
          64           22           2      -0.8476        8.6282882325383436        34.2131529256830260        0.1000000014901161     
          65           22           1       0.4238        8.6282882325383436        35.2131529480347680        0.1000000014901161     
          66           22           1       0.4238        8.6282882325383436        33.7798207432160420        0.9428094625473023     
          67           23           2      -0.8476        17.1565764635865710        34.2131529256830260        0.1000000014901161     
          68           23           1       0.4238        17.1565764635865710        35.2131529480347680        0.1000000014901161     
          69           23           1       0.4238        17.1565764635865710        33.7798207432160420        0.9428094625473023     
          70           24           2      -0.8476        25.6848646946347970        34.2131529256830260        0.1000000014901161     
          71           24           1       0.4238        25.6848646946347970        35.2131529480347680        0.1000000014901161     
          72           24           1       0.4238        25.6848646946347970        33.7798207432160420        0.9428094625473023     
          73           25           2      -0.8476        34.2131529256830260        34.2131529256830260        0.1000000014901161     
          74           25           1       0.4238        34.2131529256830260        35.2131529480347680        0.1000000014901161     
          75           25           1       0.4238        34.2131529256830260        33.7798207432160420        0.9428094625473023     
          76           26           2      -0.8476        0.1000000014901161        0.1000000014901161        8.6282882325383436     
          77           26           1       0.4238        0.1000000014901161        1.1000000238418579        8.6282882325383436     
          78           26           1       0.4238        0.1000000014901161        -0.3333321809768677        9.4710976935955298     
          79           27           2      -0.8476        8.6282882325383436        0.1000000014901161        8.6282882325383436     
          80           27           1       0.4238        8.6282882325383436        1.1000000238418579        8.6282882325383436     
          81           27           1       0.4238        8.6282882325383436        -0.3333321809768677        9.4710976935955298     
          82           28           2      -0.8476        17.1565764635865710        0.1000000014901161        8.6282882325383436     
          83           28           1       0.4238        17.1565764635865710        1.1000000238418579        8.6282882325383436     
          84           28           1       0.4238        17.1565764635865710        -0.3333321809768677        9.4710976935955298     
          85           29           2      -0.8476        25.6848646946347970        0.1000000014901161        8.6282882325383436     
          86           29           1       0.4238        25.6848646946347970        1.1000000238418579        8.6282882325383436     
          87           29           1       0.4238        25.6848646946347970        -0.3333321809768677        9.4710976935955298     
          88           30           2      -0.8476        34.2131529256830260        0.1000000014901161        8.6282882325383436     
          89           30           1       0.4238        34.2131529256830260        1.1000000238418579        8.6282882325383436     
          90           30           1       0.4238        34.2131529256830260        -0.3333321809768677        9.4710976935955298     
          91           31           2      -0.8476        0.1000000014901161        8.6282882325383436        8.6282882325383436     
          92           31           1       0.4238        0.1000000014901161        9.6282882548900854        8.6282882325383436     
          93           31           1       0.4238        0.1000000014901161        8.1949560500713599        9.4710976935955298     
          94           32           2      -0.8476        8.6282882325383436        8.6282882325383436        8.6282882325383436     
          95           32           1       0.4238        8.6282882325383436        9.6282882548900854        8.6282882325383436     
          96           32           1       0.4238        8.6282882325383436        8.1949560500713599        9.4710976935955298     
          97           33           2      -0.8476        17.1565764635865710        8.6282882325383436        8.6282882325383436     
          98           33           1       0.4238        17.1565764635865710        9.6282882548900854        8.6282882325383436     
          99           33           1       0.4238        17.1565764635865710        8.1949560500713599        9.4710976935955298     
         100           34           2      -0.8476        25.6848646946347970        8.6282882325383436        8.6282882325383436     
         101           34           1       0.4238        25.6848646946347970        9.6282882548900854        8.6282882325383436     
         102           34           1       0.4238        25.6848646946347970        8.1949560500713599        9.4710976935955298     
         103           35           2      -0.8476        34.2131529256830260        8.6282882325383436        8.6282882325383436     
         104           35           1       0.4238        34.2131529256830260        9.6282882548900854        8.6282882325383436     
         105           35           1       0.4238        34.2131529256830260        8.1949560500713599        9.4710976935955298     
         106           36           2      -0.8476        0.1000000014901161        17.1565764635865710        8.6282882325383436     
         107           36           1       0.4238        0.1000000014901161        18.1565764859383130        8.6282882325383436     
         108           36           1       0.4238        0.1000000014901161        16.7232442811195870        9.4710976935955298     
         109           37           2      -0.8476        8.6282882325383436        17.1565764635865710        8.6282882325383436     
         110           37           1       0.4238        8.6282882325383436        18.1565764859383130        8.6282882325383436     
         111           37           1       0.4238        8.6282882325383436        16.7232442811195870        9.4710976935955298     
         112           38           2      -0.8476        17.1565764635865710        17.1565764635865710        8.6282882325383436     
         113           38           1       0.4238        17.1565764635865710        18.1565764859383130        8.6282882325383436     
         114           38           1       0.4238        17.1565764635865710        16.7232442811195870        9.4710976935955298     
         115           39           2      -0.8476        25.6848646946347970        17.1565764635865710        8.6282882325383436     
         116           39           1       0.4238        25.6848646946347970        18.1565764859383130        8.6282882325383436     
         117           39           1       0.4238        25.6848646946347970        16.7232442811195870        9.4710976935955298     
         118           40           2      -0.8476        34.2131529256830260        17.1565764635865710        8.6282882325383436     
         119           40           1       0.4238        34.2131529256830260        18.1565764859383130        8.6282882325383436     
         120           40           1       0.4238        34.2131529256830260        16.7232442811195870        9.4710976935955298     
         121           41           2      -0.8476        0.1000000014901161        25.6848646946347970        8.6282882325383436     
         122           41           1       0.4238        0.1000000014901161        26.6848647169865390        8.6282882325383436     
         123           41           1       0.4238        0.1000000014901161        25.2515325121678130        9.4710976935955298     
         124           42           2      -0.8476        8.6282882325383436        25.6848646946347970        8.6282882325383436     
         125           42           1       0.4238        8.6282882325383436        26.6848647169865390        8.6282882325383436     
         126           42           1       0.4238        8.6282882325383436        25.2515325121678130        9.4710976935955298     
         127           43           2      -0.8476        17.1565764635865710        25.6848646946347970        8.6282882325383436     
         128           43           1       0.4238        17.1565764635865710        26.6848647169865390        8.6282882325383436     
         129           43           1       0.4238        17.1565764635865710        25.2515325121678130        9.4710976935955298     
         130           44           2      -0.8476        25.6848646946347970        25.6848646946347970        8.6282882325383436     
         131           44           1       0.4238        25.6848646946347970        26.6848647169865390        8.6282882325383436     
         132           44           1       0.4238        25.6848646946347970        25.2515325121678130        9.4710976935955298     
         133           45           2      -0.8476        34.2131529256830260        25.6848646946347970        8.6282882325383436     
         134           45           1       0.4238        34.2131529256830260        26.6848647169865390        8.6282882325383436     
         135           45           1       0.4238        34.2131529256830260        25.2515325121678130        9.4710976935955298     
         136           46           2      -0.8476        0.1000000014901161        34.2131529256830260        8.6282882325383436     
         137           46           1       0.4238        0.1000000014901161        35.2131529480347680        8.6282882325383436     
         138           46           1       0.4238        0.1000000014901161        33.7798207432160420        9.4710976935955298     
         139           47           2      -0.8476        8.6282882325383436        34.2131529256830260        8.6282882325383436     
         140           47           1       0.4238        8.6282882325383436        35.2131529480347680        8.6282882325383436     
         141           47           1       0.4238        8.6282882325383436        33.7798207432160420        9.4710976935955298     
         142           48           2      -0.8476        17.1565764635865710        34.2131529256830260        8.6282882325383436     
         143           48           1       0.4238        17.1565764635865710        35.2131529480347680        8.6282882325383436     
         144           48           1       0.4238        17.1565764635865710        33.7798207432160420        9.4710976935955298     
         145           49           2      -0.8476        25.6848646946347970        34.2131529256830260        8.6282882325383436     
         146           49           1       0.4238        25.6848646946347970        35.2131529480347680        8.6282882325383436     
         147           49           1       0.4238        25.6848646946347970        33.7798207432160420        9.4710976935955298     
         148           50           2      -0.8476        34.2131529256830260        34.2131529256830260        8.6282882325383436     
         149           50           1       0.4238        34.2131529256830260        35.2131529480347680        8.6282882325383436     
         150           50           1       0.4238        34.2131529256830260        33.7798207432160420        9.4710976935955298     

Bonds

            1        1           1           2
            2        1           1           3
            3        1           4           5
            4        1           4           6
            5        1           7           8
            6        1           7           9
            7        1          10          11
            8        1          10          12
            9        1          13          14
           10        1          13          15
           11        1          16          17
           12        1          16          18
           13        1          19          20
           14        1          19          21
           15        1          22          23
           16        1          22          24
           17        1          25          26
           18        1          25          27
           19        1          28          29
           20        1          28          30
           21        1          31          32
           22        1          31          33
           23        1          34          35
           24        1          34          36
           25        1          37          38
           26        1          37          39
           27        1          40          41
           28        1          40          42
           29        1          43          44
           30        1          43          45
           31        1          46          47
           32        1          46          48
           33        1          49          50
           34        1          49          51
           35        1          52          53
           36        1          52          54
           37        1          55          56
           38        1          55          57
           39        1          58          59
           40        1          58          60
           41        1          61          62
           42        1          61          63
           43        1          64          65
           44        1          64          66
           45        1          67          68
           46        1          67          69
           47        1          70          71
           48        1          70          72
           49        1          73          74
           50        1          73          75
           51        1          76          77
           52        1          76          78
           53        1          79          80
           54        1          79          81
           55        1          82          83
           56        1          82          84
           57        1          85          86
           58        1          85          87
           59        1          88          89
           60        1          88          90
           61        1          91          92
           62        1          91          93
           63        1          94          95
           64        1          94          96
           65        1          97          98
           66        1          97          99
           67        1         100         101
           68        1         100         102
           69        1         103         104
           70        1         103         105
           71        1         106         107
           72        1         106         108
           73        1         109         110
           74        1         109         111
           75        1         112         113
           76        1         112         114
           77        1         115         116
           78        1         115         117
           79        1         118         119
           80        1         118         120
           81        1         121         122
           82        1         121         123
           83        1         124         125
           84        1         124         126
           85        1         127         128
           86        1         127         129
           87        1         130         131
           88        1         130         132
           89        1         133         134
           90        1         133         135
           91        1         136         137
           92        1         136         138
           93        1         139         140
           94        1         139         141
           95        1         142         143
           96        1         142         144
           97        1         145         146
           98        1         145         147
           99        1         148         149
          100        1         148         150

Angles

            1        1           2           1           3
            2        1           5           4           6
            3        1           8           7           9
            4        1          11          10          12
            5        1          14          13          15
            6        1          17          16          18
            7        1          20          19          21
            8        1          23          22          24
            9        1          26          25          27
           10        1          29          28          30
           11        1          32          31          33
           12        1          35          34          36
           13        1          38          37          39
           14        1          41          40          42
           15        1          44          43          45
           16        1          47          46          48
           17        1          50          49          51
           18        1          53          52          54
           19        1          56          55          57
           20        1          59          58          60
           21        1          62          61          63
           22        1          65          64          66
           23        1          68          67          69
           24        1          71          70          72
           25        1          74          73          75
           26        1          77          76          78
           27        1          80          79          81
           28        1          83          82          84
           29        1          86          85          87
           30        1          89          88          90
           31        1          92          91          93
           32        1          95          94          96
           33        1          98          97          99
           34        1         101         100         102
           35        1         104         103         105
           36        1         107         106         108
           37        1         110         109         111
           38        1         113         112         114
           39        1         116         115         117
           40        1         119         118         120
           41        1         122         121         123
           42        1         125         124         126
           43        1         128         127         129
           44        1         131         130         132
           45        1         134         133         135
           46        1         137         136         138
           47        1         140         139         141
           48        1         143         142         144
           49        1         146         145         147
           50        1         149         148         150
