ITEM: TIMESTEP
0
ITEM: NUMBER OF ATOMS
8640
ITEM: BOX BOUNDS pp pp pp
-7.5694412000000000e-01 4.4165557999999997e+01
3.8127473000000001e-01 4.7066074000000000e+01
1.7900842000000000e-01 4.4193866999999997e+01
ITEM: ATOMS id type xs ys zs
1 2 0.01685 0.047383 0.089683
2 1 0.01685 0.067 0.083333
3 1 0.01685 0.048266 0.111416
109 2 0.11685 0.047383 0.089683
110 1 0.11685 0.067 0.083333
111 1 0.11685 0.048266 0.111416
1081 2 0.06685 0.130716 0.089683
1083 1 0.06685 0.1316 0.111416
2161 2 0.01685 0.10295 0.00635
2162 1 0.01685 0.083333 0
2163 1 0.01685 0.102066 0.028083
2269 2 0.11685 0.10295 0.00635
2270 1 0.11685 0.083333 0
2271 1 0.11685 0.102066 0.028083
3241 2 0.06685 0.019616 0.00635
3242 1 0.06685 0 0
3243 1 0.06685 0.018733 0.028083
4321 2 0.06685 0.019616 0.06885
4322 1 0.0837 0.029866 0.076533
4323 1 0.05 0.029866 0.076533
5401 2 0.01685 0.10295 0.06885
5402 1 0.0337 0.1132 0.076533
5403 1 0 0.1132 0.076533
5509 2 0.11685 0.10295 0.06885
5510 1 0.1337 0.1132 0.076533
5511 1 0.1 0.1132 0.076533
217 2 0.21685 0.047383 0.089683
218 1 0.21685 0.067 0.083333
219 1 0.21685 0.048266 0.111416
1189 2 0.16685 0.130716 0.089683
1191 1 0.16685 0.1316 0.111416
1297 2 0.26685 0.130716 0.089683
1299 1 0.26685 0.1316 0.111416
2377 2 0.21685 0.10295 0.00635
2378 1 0.21685 0.083333 0
2379 1 0.21685 0.102066 0.028083
3349 2 0.16685 0.019616 0.00635
3350 1 0.16685 0 0
3351 1 0.16685 0.018733 0.028083
3457 2 0.26685 0.019616 0.00635
3458 1 0.26685 0 0
3459 1 0.26685 0.018733 0.028083
4429 2 0.16685 0.019616 0.06885
4430 1 0.1837 0.029866 0.076533
4431 1 0.15 0.029866 0.076533
4537 2 0.26685 0.019616 0.06885
4538 1 0.2837 0.029866 0.076533
4539 1 0.25 0.029866 0.076533
5617 2 0.21685 0.10295 0.06885
5618 1 0.2337 0.1132 0.076533
5619 1 0.2 0.1132 0.076533
325 2 0.31685 0.047383 0.089683
326 1 0.31685 0.067 0.083333
327 1 0.31685 0.048266 0.111416
433 2 0.41685 0.047383 0.089683
434 1 0.41685 0.067 0.083333
435 1 0.41685 0.048266 0.111416
1405 2 0.36685 0.130716 0.089683
1407 1 0.36685 0.1316 0.111416
2485 2 0.31685 0.10295 0.00635
2486 1 0.31685 0.083333 0
2487 1 0.31685 0.102066 0.028083
2593 2 0.41685 0.10295 0.00635
2594 1 0.41685 0.083333 0
2595 1 0.41685 0.102066 0.028083
3565 2 0.36685 0.019616 0.00635
3566 1 0.36685 0 0
3567 1 0.36685 0.018733 0.028083
4645 2 0.36685 0.019616 0.06885
4646 1 0.3837 0.029866 0.076533
4647 1 0.35 0.029866 0.076533
5725 2 0.31685 0.10295 0.06885
5726 1 0.3337 0.1132 0.076533
5727 1 0.3 0.1132 0.076533
5833 2 0.41685 0.10295 0.06885
5835 1 0.4 0.1132 0.076533
541 2 0.51685 0.047383 0.089683
542 1 0.51685 0.067 0.083333
543 1 0.51685 0.048266 0.111416
1513 2 0.46685 0.130716 0.089683
1515 1 0.46685 0.1316 0.111416
1621 2 0.56685 0.130716 0.089683
1623 1 0.56685 0.1316 0.111416
2701 2 0.51685 0.10295 0.00635
2702 1 0.51685 0.083333 0
2703 1 0.51685 0.102066 0.028083
3673 2 0.46685 0.019616 0.00635
3674 1 0.46685 0 0
3675 1 0.46685 0.018733 0.028083
3781 2 0.56685 0.019616 0.00635
3782 1 0.56685 0 0
3783 1 0.56685 0.018733 0.028083
4753 2 0.46685 0.019616 0.06885
4754 1 0.4837 0.029866 0.076533
4755 1 0.45 0.029866 0.076533
4861 2 0.56685 0.019616 0.06885
4863 1 0.55 0.029866 0.076533
5834 1 0.4337 0.1132 0.076533
5941 2 0.51685 0.10295 0.06885
5942 1 0.5337 0.1132 0.076533
5943 1 0.5 0.1132 0.076533
649 2 0.61685 0.047383 0.089683
650 1 0.61685 0.067 0.083333
651 1 0.61685 0.048266 0.111416
1729 2 0.66685 0.130716 0.089683
1731 1 0.66685 0.1316 0.111416
2809 2 0.61685 0.10295 0.00635
2810 1 0.61685 0.083333 0
2811 1 0.61685 0.102066 0.028083
3889 2 0.66685 0.019616 0.00635
3890 1 0.66685 0 0
3891 1 0.66685 0.018733 0.028083
4862 1 0.5837 0.029866 0.076533
4969 2 0.66685 0.019616 0.06885
4970 1 0.6837 0.029866 0.076533
4971 1 0.65 0.029866 0.076533
6049 2 0.61685 0.10295 0.06885
6050 1 0.6337 0.1132 0.076533
6051 1 0.6 0.1132 0.076533
6159 1 0.7 0.1132 0.076533
757 2 0.71685 0.047383 0.089683
758 1 0.71685 0.067 0.083333
759 1 0.71685 0.048266 0.111416
865 2 0.81685 0.047383 0.089683
866 1 0.81685 0.067 0.083333
867 1 0.81685 0.048266 0.111416
1837 2 0.76685 0.130716 0.089683
1839 1 0.76685 0.1316 0.111416
2917 2 0.71685 0.10295 0.00635
2918 1 0.71685 0.083333 0
2919 1 0.71685 0.102066 0.028083
3025 2 0.81685 0.10295 0.00635
3026 1 0.81685 0.083333 0
3027 1 0.81685 0.102066 0.028083
3997 2 0.76685 0.019616 0.00635
3998 1 0.76685 0 0
3999 1 0.76685 0.018733 0.028083
5077 2 0.76685 0.019616 0.06885
5078 1 0.7837 0.029866 0.076533
5079 1 0.75 0.029866 0.076533
5187 1 0.85 0.029866 0.076533
6157 2 0.71685 0.10295 0.06885
6158 1 0.7337 0.1132 0.076533
6265 2 0.81685 0.10295 0.06885
6266 1 0.8337 0.1132 0.076533
6267 1 0.8 0.1132 0.076533
973 2 0.91685 0.047383 0.089683
974 1 0.91685 0.067 0.083333
975 1 0.91685 0.048266 0.111416
1945 2 0.86685 0.130716 0.089683
1947 1 0.86685 0.1316 0.111416
2053 2 0.96685 0.130716 0.089683
2055 1 0.96685 0.1316 0.111416
3133 2 0.91685 0.10295 0.00635
3134 1 0.91685 0.083333 0
3135 1 0.91685 0.102066 0.028083
4105 2 0.86685 0.019616 0.00635
4106 1 0.86685 0 0
4107 1 0.86685 0.018733 0.028083
4213 2 0.96685 0.019616 0.00635
4214 1 0.96685 0 0
4215 1 0.96685 0.018733 0.028083
5185 2 0.86685 0.019616 0.06885
5186 1 0.8837 0.029866 0.076533
5293 2 0.96685 0.019616 0.06885
5294 1 0.9837 0.029866 0.076533
5295 1 0.95 0.029866 0.076533
6373 2 0.91685 0.10295 0.06885
6374 1 0.9337 0.1132 0.076533
6375 1 0.9 0.1132 0.076533
19 2 0.01685 0.21405 0.089683
20 1 0.01685 0.233666 0.083333
21 1 0.01685 0.214933 0.111416
127 2 0.11685 0.21405 0.089683
128 1 0.11685 0.233666 0.083333
129 1 0.11685 0.214933 0.111416
1082 1 0.06685 0.150333 0.083333
2179 2 0.01685 0.269616 0.00635
2180 1 0.01685 0.25 0
2181 1 0.01685 0.268733 0.028083
2287 2 0.11685 0.269616 0.00635
2288 1 0.11685 0.25 0
2289 1 0.11685 0.268733 0.028083
3259 2 0.06685 0.186283 0.00635
3260 1 0.06685 0.166666 0
3261 1 0.06685 0.1854 0.028083
4339 2 0.06685 0.186283 0.06885
4340 1 0.0837 0.196533 0.076533
4341 1 0.05 0.196533 0.076533
5419 2 0.01685 0.269616 0.06885
5420 1 0.0337 0.279866 0.076533
5421 1 0 0.279866 0.076533
5527 2 0.11685 0.269616 0.06885
5528 1 0.1337 0.279866 0.076533
5529 1 0.1 0.279866 0.076533
235 2 0.21685 0.21405 0.089683
236 1 0.21685 0.233666 0.083333
237 1 0.21685 0.214933 0.111416
1190 1 0.16685 0.150333 0.083333
1298 1 0.26685 0.150333 0.083333
2395 2 0.21685 0.269616 0.00635
2396 1 0.21685 0.25 0
2397 1 0.21685 0.268733 0.028083
3367 2 0.16685 0.186283 0.00635
3368 1 0.16685 0.166666 0
3369 1 0.16685 0.1854 0.028083
3475 2 0.26685 0.186283 0.00635
3476 1 0.26685 0.166666 0
3477 1 0.26685 0.1854 0.028083
4447 2 0.16685 0.186283 0.06885
4448 1 0.1837 0.196533 0.076533
4449 1 0.15 0.196533 0.076533
4555 2 0.26685 0.186283 0.06885
4556 1 0.2837 0.196533 0.076533
4557 1 0.25 0.196533 0.076533
5635 2 0.21685 0.269616 0.06885
5636 1 0.2337 0.279866 0.076533
5637 1 0.2 0.279866 0.076533
343 2 0.31685 0.21405 0.089683
344 1 0.31685 0.233666 0.083333
345 1 0.31685 0.214933 0.111416
451 2 0.41685 0.21405 0.089683
452 1 0.41685 0.233666 0.083333
453 1 0.41685 0.214933 0.111416
1406 1 0.36685 0.150333 0.083333
2503 2 0.31685 0.269616 0.00635
2504 1 0.31685 0.25 0
2505 1 0.31685 0.268733 0.028083
2611 2 0.41685 0.269616 0.00635
2612 1 0.41685 0.25 0
2613 1 0.41685 0.268733 0.028083
3583 2 0.36685 0.186283 0.00635
3584 1 0.36685 0.166666 0
3585 1 0.36685 0.1854 0.028083
4663 2 0.36685 0.186283 0.06885
4664 1 0.3837 0.196533 0.076533
4665 1 0.35 0.196533 0.076533
5743 2 0.31685 0.269616 0.06885
5744 1 0.3337 0.279866 0.076533
5745 1 0.3 0.279866 0.076533
5851 2 0.41685 0.269616 0.06885
5853 1 0.4 0.279866 0.076533
559 2 0.51685 0.21405 0.089683
560 1 0.51685 0.233666 0.083333
561 1 0.51685 0.214933 0.111416
1514 1 0.46685 0.150333 0.083333
1622 1 0.56685 0.150333 0.083333
2719 2 0.51685 0.269616 0.00635
2720 1 0.51685 0.25 0
2721 1 0.51685 0.268733 0.028083
3691 2 0.46685 0.186283 0.00635
3692 1 0.46685 0.166666 0
3693 1 0.46685 0.1854 0.028083
3799 2 0.56685 0.186283 0.00635
3800 1 0.56685 0.166666 0
3801 1 0.56685 0.1854 0.028083
4771 2 0.46685 0.186283 0.06885
4772 1 0.4837 0.196533 0.076533
4773 1 0.45 0.196533 0.076533
4879 2 0.56685 0.186283 0.06885
4881 1 0.55 0.196533 0.076533
5852 1 0.4337 0.279866 0.076533
5959 2 0.51685 0.269616 0.06885
5960 1 0.5337 0.279866 0.076533
5961 1 0.5 0.279866 0.076533
667 2 0.61685 0.21405 0.089683
668 1 0.61685 0.233666 0.083333
669 1 0.61685 0.214933 0.111416
1730 1 0.66685 0.150333 0.083333
2827 2 0.61685 0.269616 0.00635
2828 1 0.61685 0.25 0
2829 1 0.61685 0.268733 0.028083
3907 2 0.66685 0.186283 0.00635
3908 1 0.66685 0.166666 0
3909 1 0.66685 0.1854 0.028083
4880 1 0.5837 0.196533 0.076533
4987 2 0.66685 0.186283 0.06885
4988 1 0.6837 0.196533 0.076533
4989 1 0.65 0.196533 0.076533
6067 2 0.61685 0.269616 0.06885
6068 1 0.6337 0.279866 0.076533
6069 1 0.6 0.279866 0.076533
6177 1 0.7 0.279866 0.076533
775 2 0.71685 0.21405 0.089683
776 1 0.71685 0.233666 0.083333
777 1 0.71685 0.214933 0.111416
883 2 0.81685 0.21405 0.089683
884 1 0.81685 0.233666 0.083333
885 1 0.81685 0.214933 0.111416
1838 1 0.76685 0.150333 0.083333
2935 2 0.71685 0.269616 0.00635
2936 1 0.71685 0.25 0
2937 1 0.71685 0.268733 0.028083
3043 2 0.81685 0.269616 0.00635
3044 1 0.81685 0.25 0
3045 1 0.81685 0.268733 0.028083
4015 2 0.76685 0.186283 0.00635
4016 1 0.76685 0.166666 0
4017 1 0.76685 0.1854 0.028083
5095 2 0.76685 0.186283 0.06885
5096 1 0.7837 0.196533 0.076533
5097 1 0.75 0.196533 0.076533
5205 1 0.85 0.196533 0.076533
6175 2 0.71685 0.269616 0.06885
6176 1 0.7337 0.279866 0.076533
6283 2 0.81685 0.269616 0.06885
6284 1 0.8337 0.279866 0.076533
6285 1 0.8 0.279866 0.076533
991 2 0.91685 0.21405 0.089683
992 1 0.91685 0.233666 0.083333
993 1 0.91685 0.214933 0.111416
1946 1 0.86685 0.150333 0.083333
2054 1 0.96685 0.150333 0.083333
3151 2 0.91685 0.269616 0.00635
3152 1 0.91685 0.25 0
3153 1 0.91685 0.268733 0.028083
4123 2 0.86685 0.186283 0.00635
4124 1 0.86685 0.166666 0
4125 1 0.86685 0.1854 0.028083
4231 2 0.96685 0.186283 0.00635
4232 1 0.96685 0.166666 0
4233 1 0.96685 0.1854 0.028083
5203 2 0.86685 0.186283 0.06885
5204 1 0.8837 0.196533 0.076533
5311 2 0.96685 0.186283 0.06885
5312 1 0.9837 0.196533 0.076533
5313 1 0.95 0.196533 0.076533
6391 2 0.91685 0.269616 0.06885
6392 1 0.9337 0.279866 0.076533
6393 1 0.9 0.279866 0.076533
37 2 0.01685 0.380716 0.089683
38 1 0.01685 0.400333 0.083333
39 1 0.01685 0.3816 0.111416
145 2 0.11685 0.380716 0.089683
146 1 0.11685 0.400333 0.083333
147 1 0.11685 0.3816 0.111416
1099 2 0.06685 0.297383 0.089683
1100 1 0.06685 0.317 0.083333
1101 1 0.06685 0.298266 0.111416
2198 1 0.01685 0.416666 0
2306 1 0.11685 0.416666 0
3277 2 0.06685 0.35295 0.00635
3278 1 0.06685 0.333333 0
3279 1 0.06685 0.352066 0.028083
4357 2 0.06685 0.35295 0.06885
4358 1 0.0837 0.3632 0.076533
4359 1 0.05 0.3632 0.076533
253 2 0.21685 0.380716 0.089683
254 1 0.21685 0.400333 0.083333
255 1 0.21685 0.3816 0.111416
1207 2 0.16685 0.297383 0.089683
1208 1 0.16685 0.317 0.083333
1209 1 0.16685 0.298266 0.111416
1315 2 0.26685 0.297383 0.089683
1316 1 0.26685 0.317 0.083333
1317 1 0.26685 0.298266 0.111416
2414 1 0.21685 0.416666 0
3385 2 0.16685 0.35295 0.00635
3386 1 0.16685 0.333333 0
3387 1 0.16685 0.352066 0.028083
3493 2 0.26685 0.35295 0.00635
3494 1 0.26685 0.333333 0
3495 1 0.26685 0.352066 0.028083
4465 2 0.16685 0.35295 0.06885
4466 1 0.1837 0.3632 0.076533
4467 1 0.15 0.3632 0.076533
4573 2 0.26685 0.35295 0.06885
4574 1 0.2837 0.3632 0.076533
4575 1 0.25 0.3632 0.076533
361 2 0.31685 0.380716 0.089683
362 1 0.31685 0.400333 0.083333
363 1 0.31685 0.3816 0.111416
469 2 0.41685 0.380716 0.089683
470 1 0.41685 0.400333 0.083333
471 1 0.41685 0.3816 0.111416
1423 2 0.36685 0.297383 0.089683
1424 1 0.36685 0.317 0.083333
1425 1 0.36685 0.298266 0.111416
2522 1 0.31685 0.416666 0
2630 1 0.41685 0.416666 0
3601 2 0.36685 0.35295 0.00635
3602 1 0.36685 0.333333 0
3603 1 0.36685 0.352066 0.028083
4681 2 0.36685 0.35295 0.06885
4682 1 0.3837 0.3632 0.076533
4683 1 0.35 0.3632 0.076533
577 2 0.51685 0.380716 0.089683
578 1 0.51685 0.400333 0.083333
579 1 0.51685 0.3816 0.111416
1531 2 0.46685 0.297383 0.089683
1532 1 0.46685 0.317 0.083333
1533 1 0.46685 0.298266 0.111416
1639 2 0.56685 0.297383 0.089683
1640 1 0.56685 0.317 0.083333
1641 1 0.56685 0.298266 0.111416
2738 1 0.51685 0.416666 0
3709 2 0.46685 0.35295 0.00635
3710 1 0.46685 0.333333 0
3711 1 0.46685 0.352066 0.028083
3817 2 0.56685 0.35295 0.00635
3818 1 0.56685 0.333333 0
3819 1 0.56685 0.352066 0.028083
4789 2 0.46685 0.35295 0.06885
4790 1 0.4837 0.3632 0.076533
4791 1 0.45 0.3632 0.076533
4897 2 0.56685 0.35295 0.06885
4899 1 0.55 0.3632 0.076533
685 2 0.61685 0.380716 0.089683
686 1 0.61685 0.400333 0.083333
687 1 0.61685 0.3816 0.111416
1747 2 0.66685 0.297383 0.089683
1748 1 0.66685 0.317 0.083333
1749 1 0.66685 0.298266 0.111416
2846 1 0.61685 0.416666 0
3925 2 0.66685 0.35295 0.00635
3926 1 0.66685 0.333333 0
3927 1 0.66685 0.352066 0.028083
4898 1 0.5837 0.3632 0.076533
5005 2 0.66685 0.35295 0.06885
5006 1 0.6837 0.3632 0.076533
5007 1 0.65 0.3632 0.076533
793 2 0.71685 0.380716 0.089683
794 1 0.71685 0.400333 0.083333
795 1 0.71685 0.3816 0.111416
901 2 0.81685 0.380716 0.089683
902 1 0.81685 0.400333 0.083333
903 1 0.81685 0.3816 0.111416
1855 2 0.76685 0.297383 0.089683
1856 1 0.76685 0.317 0.083333
1857 1 0.76685 0.298266 0.111416
2954 1 0.71685 0.416666 0
3062 1 0.81685 0.416666 0
4033 2 0.76685 0.35295 0.00635
4034 1 0.76685 0.333333 0
4035 1 0.76685 0.352066 0.028083
5113 2 0.76685 0.35295 0.06885
5114 1 0.7837 0.3632 0.076533
5115 1 0.75 0.3632 0.076533
5223 1 0.85 0.3632 0.076533
1009 2 0.91685 0.380716 0.089683
1010 1 0.91685 0.400333 0.083333
1011 1 0.91685 0.3816 0.111416
1963 2 0.86685 0.297383 0.089683
1964 1 0.86685 0.317 0.083333
1965 1 0.86685 0.298266 0.111416
2071 2 0.96685 0.297383 0.089683
2072 1 0.96685 0.317 0.083333
2073 1 0.96685 0.298266 0.111416
3170 1 0.91685 0.416666 0
4141 2 0.86685 0.35295 0.00635
4142 1 0.86685 0.333333 0
4143 1 0.86685 0.352066 0.028083
4249 2 0.96685 0.35295 0.00635
4250 1 0.96685 0.333333 0
4251 1 0.96685 0.352066 0.028083
5221 2 0.86685 0.35295 0.06885
5222 1 0.8837 0.3632 0.076533
5329 2 0.96685 0.35295 0.06885
5330 1 0.9837 0.3632 0.076533
5331 1 0.95 0.3632 0.076533
55 2 0.01685 0.547383 0.089683
56 1 0.01685 0.567 0.083333
57 1 0.01685 0.548266 0.111416
163 2 0.11685 0.547383 0.089683
164 1 0.11685 0.567 0.083333
165 1 0.11685 0.548266 0.111416
1117 2 0.06685 0.46405 0.089683
1118 1 0.06685 0.483666 0.083333
1119 1 0.06685 0.464933 0.111416
2197 2 0.01685 0.436283 0.00635
2199 1 0.01685 0.4354 0.028083
2305 2 0.11685 0.436283 0.00635
2307 1 0.11685 0.4354 0.028083
3295 2 0.06685 0.519616 0.00635
3296 1 0.06685 0.5 0
3297 1 0.06685 0.518733 0.028083
4375 2 0.06685 0.519616 0.06885
4376 1 0.0837 0.529866 0.076533
4377 1 0.05 0.529866 0.076533
5437 2 0.01685 0.436283 0.06885
5438 1 0.0337 0.446533 0.076533
5439 1 0 0.446533 0.076533
5545 2 0.11685 0.436283 0.06885
5546 1 0.1337 0.446533 0.076533
5547 1 0.1 0.446533 0.076533
271 2 0.21685 0.547383 0.089683
272 1 0.21685 0.567 0.083333
273 1 0.21685 0.548266 0.111416
1225 2 0.16685 0.46405 0.089683
1226 1 0.16685 0.483666 0.083333
1227 1 0.16685 0.464933 0.111416
1333 2 0.26685 0.46405 0.089683
1334 1 0.26685 0.483666 0.083333
1335 1 0.26685 0.464933 0.111416
2413 2 0.21685 0.436283 0.00635
2415 1 0.21685 0.4354 0.028083
3403 2 0.16685 0.519616 0.00635
3404 1 0.16685 0.5 0
3405 1 0.16685 0.518733 0.028083
3511 2 0.26685 0.519616 0.00635
3512 1 0.26685 0.5 0
3513 1 0.26685 0.518733 0.028083
4483 2 0.16685 0.519616 0.06885
4484 1 0.1837 0.529866 0.076533
4485 1 0.15 0.529866 0.076533
4591 2 0.26685 0.519616 0.06885
4592 1 0.2837 0.529866 0.076533
4593 1 0.25 0.529866 0.076533
5653 2 0.21685 0.436283 0.06885
5654 1 0.2337 0.446533 0.076533
5655 1 0.2 0.446533 0.076533
379 2 0.31685 0.547383 0.089683
380 1 0.31685 0.567 0.083333
381 1 0.31685 0.548266 0.111416
487 2 0.41685 0.547383 0.089683
488 1 0.41685 0.567 0.083333
489 1 0.41685 0.548266 0.111416
1441 2 0.36685 0.46405 0.089683
1442 1 0.36685 0.483666 0.083333
1443 1 0.36685 0.464933 0.111416
2521 2 0.31685 0.436283 0.00635
2523 1 0.31685 0.4354 0.028083
2629 2 0.41685 0.436283 0.00635
2631 1 0.41685 0.4354 0.028083
3619 2 0.36685 0.519616 0.00635
3620 1 0.36685 0.5 0
3621 1 0.36685 0.518733 0.028083
4699 2 0.36685 0.519616 0.06885
4700 1 0.3837 0.529866 0.076533
4701 1 0.35 0.529866 0.076533
5761 2 0.31685 0.436283 0.06885
5762 1 0.3337 0.446533 0.076533
5763 1 0.3 0.446533 0.076533
5869 2 0.41685 0.436283 0.06885
5871 1 0.4 0.446533 0.076533
595 2 0.51685 0.547383 0.089683
596 1 0.51685 0.567 0.083333
597 1 0.51685 0.548266 0.111416
1549 2 0.46685 0.46405 0.089683
1550 1 0.46685 0.483666 0.083333
1551 1 0.46685 0.464933 0.111416
1657 2 0.56685 0.46405 0.089683
1658 1 0.56685 0.483666 0.083333
1659 1 0.56685 0.464933 0.111416
2737 2 0.51685 0.436283 0.00635
2739 1 0.51685 0.4354 0.028083
3727 2 0.46685 0.519616 0.00635
3728 1 0.46685 0.5 0
3729 1 0.46685 0.518733 0.028083
3835 2 0.56685 0.519616 0.00635
3836 1 0.56685 0.5 0
3837 1 0.56685 0.518733 0.028083
4807 2 0.46685 0.519616 0.06885
4808 1 0.4837 0.529866 0.076533
4809 1 0.45 0.529866 0.076533
4915 2 0.56685 0.519616 0.06885
4917 1 0.55 0.529866 0.076533
5870 1 0.4337 0.446533 0.076533
5977 2 0.51685 0.436283 0.06885
5978 1 0.5337 0.446533 0.076533
5979 1 0.5 0.446533 0.076533
703 2 0.61685 0.547383 0.089683
704 1 0.61685 0.567 0.083333
705 1 0.61685 0.548266 0.111416
1765 2 0.66685 0.46405 0.089683
1766 1 0.66685 0.483666 0.083333
1767 1 0.66685 0.464933 0.111416
2845 2 0.61685 0.436283 0.00635
2847 1 0.61685 0.4354 0.028083
3943 2 0.66685 0.519616 0.00635
3944 1 0.66685 0.5 0
3945 1 0.66685 0.518733 0.028083
4916 1 0.5837 0.529866 0.076533
5023 2 0.66685 0.519616 0.06885
5024 1 0.6837 0.529866 0.076533
5025 1 0.65 0.529866 0.076533
6085 2 0.61685 0.436283 0.06885
6086 1 0.6337 0.446533 0.076533
6087 1 0.6 0.446533 0.076533
6195 1 0.7 0.446533 0.076533
811 2 0.71685 0.547383 0.089683
812 1 0.71685 0.567 0.083333
813 1 0.71685 0.548266 0.111416
919 2 0.81685 0.547383 0.089683
920 1 0.81685 0.567 0.083333
921 1 0.81685 0.548266 0.111416
1873 2 0.76685 0.46405 0.089683
1874 1 0.76685 0.483666 0.083333
1875 1 0.76685 0.464933 0.111416
2953 2 0.71685 0.436283 0.00635
2955 1 0.71685 0.4354 0.028083
3061 2 0.81685 0.436283 0.00635
3063 1 0.81685 0.4354 0.028083
4051 2 0.76685 0.519616 0.00635
4052 1 0.76685 0.5 0
4053 1 0.76685 0.518733 0.028083
5131 2 0.76685 0.519616 0.06885
5132 1 0.7837 0.529866 0.076533
5133 1 0.75 0.529866 0.076533
5241 1 0.85 0.529866 0.076533
6193 2 0.71685 0.436283 0.06885
6194 1 0.7337 0.446533 0.076533
6301 2 0.81685 0.436283 0.06885
6302 1 0.8337 0.446533 0.076533
6303 1 0.8 0.446533 0.076533
1027 2 0.91685 0.547383 0.089683
1028 1 0.91685 0.567 0.083333
1029 1 0.91685 0.548266 0.111416
1981 2 0.86685 0.46405 0.089683
1982 1 0.86685 0.483666 0.083333
1983 1 0.86685 0.464933 0.111416
2089 2 0.96685 0.46405 0.089683
2090 1 0.96685 0.483666 0.083333
2091 1 0.96685 0.464933 0.111416
3169 2 0.91685 0.436283 0.00635
3171 1 0.91685 0.4354 0.028083
4159 2 0.86685 0.519616 0.00635
4160 1 0.86685 0.5 0
4161 1 0.86685 0.518733 0.028083
4267 2 0.96685 0.519616 0.00635
4268 1 0.96685 0.5 0
4269 1 0.96685 0.518733 0.028083
5239 2 0.86685 0.519616 0.06885
5240 1 0.8837 0.529866 0.076533
5347 2 0.96685 0.519616 0.06885
5348 1 0.9837 0.529866 0.076533
5349 1 0.95 0.529866 0.076533
6409 2 0.91685 0.436283 0.06885
6410 1 0.9337 0.446533 0.076533
6411 1 0.9 0.446533 0.076533
73 2 0.01685 0.71405 0.089683
181 2 0.11685 0.71405 0.089683
1135 2 0.06685 0.630716 0.089683
1136 1 0.06685 0.650333 0.083333
1137 1 0.06685 0.6316 0.111416
2215 2 0.01685 0.60295 0.00635
2216 1 0.01685 0.583333 0
2217 1 0.01685 0.602066 0.028083
2323 2 0.11685 0.60295 0.00635
2324 1 0.11685 0.583333 0
2325 1 0.11685 0.602066 0.028083
3313 2 0.06685 0.686283 0.00635
3314 1 0.06685 0.666666 0
3315 1 0.06685 0.6854 0.028083
4393 2 0.06685 0.686283 0.06885
4394 1 0.0837 0.696533 0.076533
4395 1 0.05 0.696533 0.076533
5455 2 0.01685 0.60295 0.06885
5456 1 0.0337 0.6132 0.076533
5457 1 0 0.6132 0.076533
5563 2 0.11685 0.60295 0.06885
5564 1 0.1337 0.6132 0.076533
5565 1 0.1 0.6132 0.076533
289 2 0.21685 0.71405 0.089683
1243 2 0.16685 0.630716 0.089683
1244 1 0.16685 0.650333 0.083333
1245 1 0.16685 0.6316 0.111416
1351 2 0.26685 0.630716 0.089683
1352 1 0.26685 0.650333 0.083333
1353 1 0.26685 0.6316 0.111416
2431 2 0.21685 0.60295 0.00635
2432 1 0.21685 0.583333 0
2433 1 0.21685 0.602066 0.028083
3421 2 0.16685 0.686283 0.00635
3422 1 0.16685 0.666666 0
3423 1 0.16685 0.6854 0.028083
3529 2 0.26685 0.686283 0.00635
3530 1 0.26685 0.666666 0
3531 1 0.26685 0.6854 0.028083
4501 2 0.16685 0.686283 0.06885
4502 1 0.1837 0.696533 0.076533
4503 1 0.15 0.696533 0.076533
4609 2 0.26685 0.686283 0.06885
4610 1 0.2837 0.696533 0.076533
4611 1 0.25 0.696533 0.076533
5671 2 0.21685 0.60295 0.06885
5672 1 0.2337 0.6132 0.076533
5673 1 0.2 0.6132 0.076533
397 2 0.31685 0.71405 0.089683
505 2 0.41685 0.71405 0.089683
1459 2 0.36685 0.630716 0.089683
1460 1 0.36685 0.650333 0.083333
1461 1 0.36685 0.6316 0.111416
2539 2 0.31685 0.60295 0.00635
2540 1 0.31685 0.583333 0
2541 1 0.31685 0.602066 0.028083
2647 2 0.41685 0.60295 0.00635
2648 1 0.41685 0.583333 0
2649 1 0.41685 0.602066 0.028083
3637 2 0.36685 0.686283 0.00635
3638 1 0.36685 0.666666 0
3639 1 0.36685 0.6854 0.028083
4717 2 0.36685 0.686283 0.06885
4718 1 0.3837 0.696533 0.076533
4719 1 0.35 0.696533 0.076533
5779 2 0.31685 0.60295 0.06885
5780 1 0.3337 0.6132 0.076533
5781 1 0.3 0.6132 0.076533
5887 2 0.41685 0.60295 0.06885
5889 1 0.4 0.6132 0.076533
613 2 0.51685 0.71405 0.089683
1567 2 0.46685 0.630716 0.089683
1568 1 0.46685 0.650333 0.083333
1569 1 0.46685 0.6316 0.111416
1675 2 0.56685 0.630716 0.089683
1676 1 0.56685 0.650333 0.083333
1677 1 0.56685 0.6316 0.111416
2755 2 0.51685 0.60295 0.00635
2756 1 0.51685 0.583333 0
2757 1 0.51685 0.602066 0.028083
3745 2 0.46685 0.686283 0.00635
3746 1 0.46685 0.666666 0
3747 1 0.46685 0.6854 0.028083
3853 2 0.56685 0.686283 0.00635
3854 1 0.56685 0.666666 0
3855 1 0.56685 0.6854 0.028083
4825 2 0.46685 0.686283 0.06885
4826 1 0.4837 0.696533 0.076533
4827 1 0.45 0.696533 0.076533
4933 2 0.56685 0.686283 0.06885
4935 1 0.55 0.696533 0.076533
5888 1 0.4337 0.6132 0.076533
5995 2 0.51685 0.60295 0.06885
5996 1 0.5337 0.6132 0.076533
5997 1 0.5 0.6132 0.076533
721 2 0.61685 0.71405 0.089683
1783 2 0.66685 0.630716 0.089683
1784 1 0.66685 0.650333 0.083333
1785 1 0.66685 0.6316 0.111416
2863 2 0.61685 0.60295 0.00635
2864 1 0.61685 0.583333 0
2865 1 0.61685 0.602066 0.028083
3961 2 0.66685 0.686283 0.00635
3962 1 0.66685 0.666666 0
3963 1 0.66685 0.6854 0.028083
4934 1 0.5837 0.696533 0.076533
5041 2 0.66685 0.686283 0.06885
5042 1 0.6837 0.696533 0.076533
5043 1 0.65 0.696533 0.076533
6103 2 0.61685 0.60295 0.06885
6104 1 0.6337 0.6132 0.076533
6105 1 0.6 0.6132 0.076533
6213 1 0.7 0.6132 0.076533
829 2 0.71685 0.71405 0.089683
937 2 0.81685 0.71405 0.089683
1891 2 0.76685 0.630716 0.089683
1892 1 0.76685 0.650333 0.083333
1893 1 0.76685 0.6316 0.111416
2971 2 0.71685 0.60295 0.00635
2972 1 0.71685 0.583333 0
2973 1 0.71685 0.602066 0.028083
3079 2 0.81685 0.60295 0.00635
3080 1 0.81685 0.583333 0
3081 1 0.81685 0.602066 0.028083
4069 2 0.76685 0.686283 0.00635
4070 1 0.76685 0.666666 0
4071 1 0.76685 0.6854 0.028083
5149 2 0.76685 0.686283 0.06885
5150 1 0.7837 0.696533 0.076533
5151 1 0.75 0.696533 0.076533
5259 1 0.85 0.696533 0.076533
6211 2 0.71685 0.60295 0.06885
6212 1 0.7337 0.6132 0.076533
6319 2 0.81685 0.60295 0.06885
6320 1 0.8337 0.6132 0.076533
6321 1 0.8 0.6132 0.076533
1045 2 0.91685 0.71405 0.089683
1999 2 0.86685 0.630716 0.089683
2000 1 0.86685 0.650333 0.083333
2001 1 0.86685 0.6316 0.111416
2107 2 0.96685 0.630716 0.089683
2108 1 0.96685 0.650333 0.083333
2109 1 0.96685 0.6316 0.111416
3187 2 0.91685 0.60295 0.00635
3188 1 0.91685 0.583333 0
3189 1 0.91685 0.602066 0.028083
4177 2 0.86685 0.686283 0.00635
4178 1 0.86685 0.666666 0
4179 1 0.86685 0.6854 0.028083
4285 2 0.96685 0.686283 0.00635
4286 1 0.96685 0.666666 0
4287 1 0.96685 0.6854 0.028083
5257 2 0.86685 0.686283 0.06885
5258 1 0.8837 0.696533 0.076533
5365 2 0.96685 0.686283 0.06885
5366 1 0.9837 0.696533 0.076533
5367 1 0.95 0.696533 0.076533
6427 2 0.91685 0.60295 0.06885
6428 1 0.9337 0.6132 0.076533
6429 1 0.9 0.6132 0.076533
74 1 0.01685 0.733666 0.083333
75 1 0.01685 0.714933 0.111416
182 1 0.11685 0.733666 0.083333
183 1 0.11685 0.714933 0.111416
1153 2 0.06685 0.797383 0.089683
1154 1 0.06685 0.817 0.083333
1155 1 0.06685 0.798266 0.111416
2233 2 0.01685 0.769616 0.00635
2234 1 0.01685 0.75 0
2235 1 0.01685 0.768733 0.028083
2341 2 0.11685 0.769616 0.00635
2342 1 0.11685 0.75 0
2343 1 0.11685 0.768733 0.028083
3331 2 0.06685 0.85295 0.00635
3332 1 0.06685 0.833333 0
3333 1 0.06685 0.852066 0.028083
4411 2 0.06685 0.85295 0.06885
5473 2 0.01685 0.769616 0.06885
5474 1 0.0337 0.779866 0.076533
5475 1 0 0.779866 0.076533
5581 2 0.11685 0.769616 0.06885
5582 1 0.1337 0.779866 0.076533
5583 1 0.1 0.779866 0.076533
290 1 0.21685 0.733666 0.083333
291 1 0.21685 0.714933 0.111416
1261 2 0.16685 0.797383 0.089683
1262 1 0.16685 0.817 0.083333
1263 1 0.16685 0.798266 0.111416
1369 2 0.26685 0.797383 0.089683
1370 1 0.26685 0.817 0.083333
1371 1 0.26685 0.798266 0.111416
2449 2 0.21685 0.769616 0.00635
2450 1 0.21685 0.75 0
2451 1 0.21685 0.768733 0.028083
3439 2 0.16685 0.85295 0.00635
3440 1 0.16685 0.833333 0
3441 1 0.16685 0.852066 0.028083
3547 2 0.26685 0.85295 0.00635
3548 1 0.26685 0.833333 0
3549 1 0.26685 0.852066 0.028083
4519 2 0.16685 0.85295 0.06885
4627 2 0.26685 0.85295 0.06885
5689 2 0.21685 0.769616 0.06885
5690 1 0.2337 0.779866 0.076533
5691 1 0.2 0.779866 0.076533
398 1 0.31685 0.733666 0.083333
399 1 0.31685 0.714933 0.111416
506 1 0.41685 0.733666 0.083333
507 1 0.41685 0.714933 0.111416
1477 2 0.36685 0.797383 0.089683
1478 1 0.36685 0.817 0.083333
1479 1 0.36685 0.798266 0.111416
2557 2 0.31685 0.769616 0.00635
2558 1 0.31685 0.75 0
2559 1 0.31685 0.768733 0.028083
2665 2 0.41685 0.769616 0.00635
2666 1 0.41685 0.75 0
2667 1 0.41685 0.768733 0.028083
3655 2 0.36685 0.85295 0.00635
3656 1 0.36685 0.833333 0
3657 1 0.36685 0.852066 0.028083
4735 2 0.36685 0.85295 0.06885
5797 2 0.31685 0.769616 0.06885
5798 1 0.3337 0.779866 0.076533
5799 1 0.3 0.779866 0.076533
5905 2 0.41685 0.769616 0.06885
5907 1 0.4 0.779866 0.076533
614 1 0.51685 0.733666 0.083333
615 1 0.51685 0.714933 0.111416
1585 2 0.46685 0.797383 0.089683
1586 1 0.46685 0.817 0.083333
1587 1 0.46685 0.798266 0.111416
1693 2 0.56685 0.797383 0.089683
1694 1 0.56685 0.817 0.083333
1695 1 0.56685 0.798266 0.111416
2773 2 0.51685 0.769616 0.00635
2774 1 0.51685 0.75 0
2775 1 0.51685 0.768733 0.028083
3763 2 0.46685 0.85295 0.00635
3764 1 0.46685 0.833333 0
3765 1 0.46685 0.852066 0.028083
3871 2 0.56685 0.85295 0.00635
3872 1 0.56685 0.833333 0
3873 1 0.56685 0.852066 0.028083
4843 2 0.46685 0.85295 0.06885
4951 2 0.56685 0.85295 0.06885
5906 1 0.4337 0.779866 0.076533
6013 2 0.51685 0.769616 0.06885
6014 1 0.5337 0.779866 0.076533
6015 1 0.5 0.779866 0.076533
722 1 0.61685 0.733666 0.083333
723 1 0.61685 0.714933 0.111416
1801 2 0.66685 0.797383 0.089683
1802 1 0.66685 0.817 0.083333
1803 1 0.66685 0.798266 0.111416
2881 2 0.61685 0.769616 0.00635
2882 1 0.61685 0.75 0
2883 1 0.61685 0.768733 0.028083
3979 2 0.66685 0.85295 0.00635
3980 1 0.66685 0.833333 0
3981 1 0.66685 0.852066 0.028083
5059 2 0.66685 0.85295 0.06885
6121 2 0.61685 0.769616 0.06885
6122 1 0.6337 0.779866 0.076533
6123 1 0.6 0.779866 0.076533
6231 1 0.7 0.779866 0.076533
830 1 0.71685 0.733666 0.083333
831 1 0.71685 0.714933 0.111416
938 1 0.81685 0.733666 0.083333
939 1 0.81685 0.714933 0.111416
1909 2 0.76685 0.797383 0.089683
1910 1 0.76685 0.817 0.083333
1911 1 0.76685 0.798266 0.111416
2989 2 0.71685 0.769616 0.00635
2990 1 0.71685 0.75 0
2991 1 0.71685 0.768733 0.028083
3097 2 0.81685 0.769616 0.00635
3098 1 0.81685 0.75 0
3099 1 0.81685 0.768733 0.028083
4087 2 0.76685 0.85295 0.00635
4088 1 0.76685 0.833333 0
4089 1 0.76685 0.852066 0.028083
5167 2 0.76685 0.85295 0.06885
6229 2 0.71685 0.769616 0.06885
6230 1 0.7337 0.779866 0.076533
6337 2 0.81685 0.769616 0.06885
6338 1 0.8337 0.779866 0.076533
6339 1 0.8 0.779866 0.076533
1046 1 0.91685 0.733666 0.083333
1047 1 0.91685 0.714933 0.111416
2017 2 0.86685 0.797383 0.089683
2018 1 0.86685 0.817 0.083333
2019 1 0.86685 0.798266 0.111416
2125 2 0.96685 0.797383 0.089683
2126 1 0.96685 0.817 0.083333
2127 1 0.96685 0.798266 0.111416
3205 2 0.91685 0.769616 0.00635
3206 1 0.91685 0.75 0
3207 1 0.91685 0.768733 0.028083
4195 2 0.86685 0.85295 0.00635
4196 1 0.86685 0.833333 0
4197 1 0.86685 0.852066 0.028083
4303 2 0.96685 0.85295 0.00635
4304 1 0.96685 0.833333 0
4305 1 0.96685 0.852066 0.028083
5275 2 0.86685 0.85295 0.06885
5383 2 0.96685 0.85295 0.06885
6445 2 0.91685 0.769616 0.06885
6446 1 0.9337 0.779866 0.076533
6447 1 0.9 0.779866 0.076533
91 2 0.01685 0.880716 0.089683
92 1 0.01685 0.900333 0.083333
93 1 0.01685 0.8816 0.111416
199 2 0.11685 0.880716 0.089683
200 1 0.11685 0.900333 0.083333
201 1 0.11685 0.8816 0.111416
1171 2 0.06685 0.96405 0.089683
1172 1 0.06685 0.983666 0.083333
1173 1 0.06685 0.964933 0.111416
2251 2 0.01685 0.936283 0.00635
2252 1 0.01685 0.916666 0
2253 1 0.01685 0.9354 0.028083
2359 2 0.11685 0.936283 0.00635
2360 1 0.11685 0.916666 0
2361 1 0.11685 0.9354 0.028083
4412 1 0.0837 0.8632 0.076533
4413 1 0.05 0.8632 0.076533
5491 2 0.01685 0.936283 0.06885
5492 1 0.0337 0.946533 0.076533
5493 1 0 0.946533 0.076533
5599 2 0.11685 0.936283 0.06885
5600 1 0.1337 0.946533 0.076533
5601 1 0.1 0.946533 0.076533
307 2 0.21685 0.880716 0.089683
308 1 0.21685 0.900333 0.083333
309 1 0.21685 0.8816 0.111416
1279 2 0.16685 0.96405 0.089683
1280 1 0.16685 0.983666 0.083333
1281 1 0.16685 0.964933 0.111416
1387 2 0.26685 0.96405 0.089683
1388 1 0.26685 0.983666 0.083333
1389 1 0.26685 0.964933 0.111416